# LAMMPS data file written by OVITO Basic 3.7.11
5775 atoms
5 atom types
-49.92 49.92 xlo xhi
-49.92 49.92 ylo yhi
-49.92 49.92 zlo zhi


Atoms  # atomic

1 3 -5.34 -7.12 -23.14 0 0 0
2 1 -7.12 -5.34 -23.14 0 0 0
3 5 -1.78 -7.12 -23.14 0 0 0
4 1 -3.56 -5.34 -23.14 0 0 0
5 3 -5.34 -3.56 -23.14 0 0 0
6 3 -7.12 -1.78 -23.14 0 0 0
7 1 -1.78 -3.56 -23.14 0 0 0
8 2 -3.56 -1.78 -23.14 0 0 0
9 3 -5.34 -14.24 -19.58 0 0 0
10 4 -7.12 -12.46 -19.58 0 0 0
11 5 -1.78 -12.46 -21.36 0 0 0
12 3 -1.78 -14.24 -19.58 0 0 0
13 3 -3.56 -12.46 -19.58 0 0 0
14 2 -8.9 -8.9 -21.36 0 0 0
15 4 -8.9 -10.68 -19.58 0 0 0
16 5 -10.68 -8.9 -19.58 0 0 0
17 4 -7.12 -10.68 -21.36 0 0 0
18 5 -5.34 -8.9 -21.36 0 0 0
19 1 -5.34 -10.68 -19.58 0 0 0
20 3 -7.12 -8.9 -19.58 0 0 0
21 1 -3.56 -10.68 -21.36 0 0 0
22 5 -1.78 -8.9 -21.36 0 0 0
23 4 -1.78 -10.68 -19.58 0 0 0
24 5 -3.56 -8.9 -19.58 0 0 0
25 2 -12.46 -7.12 -19.58 0 0 0
26 5 -14.24 -5.34 -19.58 0 0 0
27 3 -10.68 -7.12 -21.36 0 0 0
28 2 -8.9 -5.34 -21.36 0 0 0
29 4 -8.9 -7.12 -19.58 0 0 0
30 5 -10.68 -5.34 -19.58 0 0 0
31 5 -7.12 -7.12 -21.36 0 0 0
32 5 -5.34 -5.34 -21.36 0 0 0
33 5 -5.34 -7.12 -19.58 0 0 0
34 3 -7.12 -5.34 -19.58 0 0 0
35 1 -3.56 -7.12 -21.36 0 0 0
36 2 -1.78 -5.34 -21.36 0 0 0
37 2 -1.78 -7.12 -19.58 0 0 0
38 2 -3.56 -5.34 -19.58 0 0 0
39 4 -12.46 -1.78 -21.36 0 0 0
40 2 -12.46 -3.56 -19.58 0 0 0
41 4 -14.24 -1.78 -19.58 0 0 0
42 5 -10.68 -3.56 -21.36 0 0 0
43 5 -8.9 -1.78 -21.36 0 0 0
44 2 -8.9 -3.56 -19.58 0 0 0
45 5 -10.68 -1.78 -19.58 0 0 0
46 1 -7.12 -3.56 -21.36 0 0 0
47 1 -5.34 -1.78 -21.36 0 0 0
48 4 -5.34 -3.56 -19.58 0 0 0
49 3 -7.12 -1.78 -19.58 0 0 0
50 4 -3.56 -3.56 -21.36 0 0 0
51 3 -1.78 -1.78 -21.36 0 0 0
52 2 -1.78 -3.56 -19.58 0 0 0
53 1 -3.56 -1.78 -19.58 0 0 0
54 4 -5.34 -16.02 -17.8 0 0 0
55 1 -5.34 -17.8 -16.02 0 0 0
56 1 -7.12 -16.02 -16.02 0 0 0
57 1 -1.78 -16.02 -17.8 0 0 0
58 2 -1.78 -17.8 -16.02 0 0 0
59 2 -3.56 -16.02 -16.02 0 0 0
60 4 -12.46 -14.24 -16.02 0 0 0
61 2 -14.24 -12.46 -16.02 0 0 0
62 4 -8.9 -12.46 -17.8 0 0 0
63 4 -8.9 -14.24 -16.02 0 0 0
64 2 -10.68 -12.46 -16.02 0 0 0
65 1 -7.12 -14.24 -17.8 0 0 0
66 3 -5.34 -12.46 -17.8 0 0 0
67 5 -5.34 -14.24 -16.02 0 0 0
68 3 -7.12 -12.46 -16.02 0 0 0
69 3 -3.56 -14.24 -17.8 0 0 0
70 5 -1.78 -12.46 -17.8 0 0 0
71 4 -1.78 -14.24 -16.02 0 0 0
72 5 -3.56 -12.46 -16.02 0 0 0
73 4 -12.46 -8.9 -17.8 0 0 0
74 2 -12.46 -10.68 -16.02 0 0 0
75 3 -14.24 -8.9 -16.02 0 0 0
76 5 -10.68 -10.68 -17.8 0 0 0
77 4 -8.9 -8.9 -17.8 0 0 0
78 4 -8.9 -10.68 -16.02 0 0 0
79 4 -10.68 -8.9 -16.02 0 0 0
80 5 -7.12 -10.68 -17.8 0 0 0
81 2 -5.34 -8.9 -17.8 0 0 0
82 3 -5.34 -10.68 -16.02 0 0 0
83 2 -7.12 -8.9 -16.02 0 0 0
84 3 -3.56 -10.68 -17.8 0 0 0
85 3 -1.78 -8.9 -17.8 0 0 0
86 3 -1.78 -10.68 -16.02 0 0 0
87 5 -3.56 -8.9 -16.02 0 0 0
88 2 -16.02 -5.34 -17.8 0 0 0
89 3 -16.02 -7.12 -16.02 0 0 0
90 1 -17.8 -5.34 -16.02 0 0 0
91 2 -14.24 -7.12 -17.8 0 0 0
92 1 -12.46 -5.34 -17.8 0 0 0
93 4 -12.46 -7.12 -16.02 0 0 0
94 4 -14.24 -5.34 -16.02 0 0 0
95 2 -10.68 -7.12 -17.8 0 0 0
96 1 -8.9 -5.34 -17.8 0 0 0
97 3 -8.9 -7.12 -16.02 0 0 0
98 4 -10.68 -5.34 -16.02 0 0 0
99 2 -7.12 -7.12 -17.8 0 0 0
100 5 -5.34 -5.34 -17.8 0 0 0
101 5 -5.34 -7.12 -16.02 0 0 0
102 2 -7.12 -5.34 -16.02 0 0 0
103 5 -3.56 -7.12 -17.8 0 0 0
104 4 -1.78 -5.34 -17.8 0 0 0
105 4 -1.78 -7.12 -16.02 0 0 0
106 1 -3.56 -5.34 -16.02 0 0 0
107 5 -16.02 -1.78 -17.8 0 0 0
108 5 -16.02 -3.56 -16.02 0 0 0
109 1 -17.8 -1.78 -16.02 0 0 0
110 3 -14.24 -3.56 -17.8 0 0 0
111 5 -12.46 -1.78 -17.8 0 0 0
112 4 -12.46 -3.56 -16.02 0 0 0
113 3 -14.24 -1.78 -16.02 0 0 0
114 5 -10.68 -3.56 -17.8 0 0 0
115 1 -8.9 -1.78 -17.8 0 0 0
116 5 -8.9 -3.56 -16.02 0 0 0
117 1 -10.68 -1.78 -16.02 0 0 0
118 4 -7.12 -3.56 -17.8 0 0 0
119 4 -5.34 -1.78 -17.8 0 0 0
120 2 -5.34 -3.56 -16.02 0 0 0
121 4 -7.12 -1.78 -16.02 0 0 0
122 3 -3.56 -3.56 -17.8 0 0 0
123 2 -1.78 -1.78 -17.8 0 0 0
124 4 -1.78 -3.56 -16.02 0 0 0
125 5 -3.56 -1.78 -16.02 0 0 0
126 4 -5.34 -19.58 -14.24 0 0 0
127 4 -7.12 -19.58 -12.46 0 0 0
128 1 -1.78 -19.58 -14.24 0 0 0
129 4 -1.78 -21.36 -12.46 0 0 0
130 2 -3.56 -19.58 -12.46 0 0 0
131 5 -12.46 -16.02 -14.24 0 0 0
132 5 -14.24 -16.02 -12.46 0 0 0
133 1 -8.9 -16.02 -14.24 0 0 0
134 2 -8.9 -17.8 -12.46 0 0 0
135 3 -10.68 -16.02 -12.46 0 0 0
136 3 -7.12 -17.8 -14.24 0 0 0
137 3 -5.34 -16.02 -14.24 0 0 0
138 5 -5.34 -17.8 -12.46 0 0 0
139 1 -7.12 -16.02 -12.46 0 0 0
140 4 -3.56 -17.8 -14.24 0 0 0
141 4 -1.78 -16.02 -14.24 0 0 0
142 3 -1.78 -17.8 -12.46 0 0 0
143 3 -3.56 -16.02 -12.46 0 0 0
144 5 -16.02 -12.46 -14.24 0 0 0
145 5 -16.02 -14.24 -12.46 0 0 0
146 1 -14.24 -14.24 -14.24 0 0 0
147 4 -12.46 -12.46 -14.24 0 0 0
148 3 -12.46 -14.24 -12.46 0 0 0
149 4 -14.24 -12.46 -12.46 0 0 0
150 5 -10.68 -14.24 -14.24 0 0 0
151 1 -8.9 -12.46 -14.24 0 0 0
152 5 -8.9 -14.24 -12.46 0 0 0
153 1 -10.68 -12.46 -12.46 0 0 0
154 4 -7.12 -14.24 -14.24 0 0 0
155 3 -5.34 -12.46 -14.24 0 0 0
156 1 -5.34 -14.24 -12.46 0 0 0
157 1 -7.12 -12.46 -12.46 0 0 0
158 3 -3.56 -14.24 -14.24 0 0 0
159 5 -1.78 -12.46 -14.24 0 0 0
160 1 -1.78 -14.24 -12.46 0 0 0
161 5 -3.56 -12.46 -12.46 0 0 0
162 5 -16.02 -8.9 -14.24 0 0 0
163 5 -16.02 -10.68 -12.46 0 0 0
164 5 -17.8 -8.9 -12.46 0 0 0
165 4 -14.24 -10.68 -14.24 0 0 0
166 3 -12.46 -8.9 -14.24 0 0 0
167 3 -12.46 -10.68 -12.46 0 0 0
168 5 -14.24 -8.9 -12.46 0 0 0
169 4 -10.68 -10.68 -14.24 0 0 0
170 1 -8.9 -8.9 -14.24 0 0 0
171 3 -8.9 -10.68 -12.46 0 0 0
172 5 -10.68 -8.9 -12.46 0 0 0
173 3 -7.12 -10.68 -14.24 0 0 0
174 1 -5.34 -8.9 -14.24 0 0 0
175 1 -5.34 -10.68 -12.46 0 0 0
176 1 -7.12 -8.9 -12.46 0 0 0
177 2 -3.56 -10.68 -14.24 0 0 0
178 3 -1.78 -8.9 -14.24 0 0 0
179 3 -1.78 -10.68 -12.46 0 0 0
180 5 -3.56 -8.9 -12.46 0 0 0
181 5 -19.58 -5.34 -14.24 0 0 0
182 1 -19.58 -7.12 -12.46 0 0 0
183 4 -17.8 -7.12 -14.24 0 0 0
184 5 -16.02 -5.34 -14.24 0 0 0
185 2 -16.02 -7.12 -12.46 0 0 0
186 5 -17.8 -5.34 -12.46 0 0 0
187 1 -14.24 -7.12 -14.24 0 0 0
188 2 -12.46 -5.34 -14.24 0 0 0
189 3 -12.46 -7.12 -12.46 0 0 0
190 5 -14.24 -5.34 -12.46 0 0 0
191 2 -10.68 -7.12 -14.24 0 0 0
192 2 -8.9 -5.34 -14.24 0 0 0
193 2 -8.9 -7.12 -12.46 0 0 0
194 2 -10.68 -5.34 -12.46 0 0 0
195 1 -7.12 -7.12 -14.24 0 0 0
196 3 -5.34 -5.34 -14.24 0 0 0
197 3 -5.34 -7.12 -12.46 0 0 0
198 3 -7.12 -5.34 -12.46 0 0 0
199 5 -3.56 -7.12 -14.24 0 0 0
200 5 -1.78 -5.34 -14.24 0 0 0
201 1 -1.78 -7.12 -12.46 0 0 0
202 3 -3.56 -5.34 -12.46 0 0 0
203 3 -19.58 -1.78 -14.24 0 0 0
204 4 -19.58 -3.56 -12.46 0 0 0
205 3 -21.36 -1.78 -12.46 0 0 0
206 5 -17.8 -3.56 -14.24 0 0 0
207 5 -16.02 -1.78 -14.24 0 0 0
208 3 -16.02 -3.56 -12.46 0 0 0
209 1 -17.8 -1.78 -12.46 0 0 0
210 2 -14.24 -3.56 -14.24 0 0 0
211 5 -12.46 -1.78 -14.24 0 0 0
212 5 -12.46 -3.56 -12.46 0 0 0
213 4 -14.24 -1.78 -12.46 0 0 0
214 2 -10.68 -3.56 -14.24 0 0 0
215 3 -8.9 -1.78 -14.24 0 0 0
216 3 -8.9 -3.56 -12.46 0 0 0
217 5 -10.68 -1.78 -12.46 0 0 0
218 1 -7.12 -3.56 -14.24 0 0 0
219 4 -5.34 -1.78 -14.24 0 0 0
220 4 -5.34 -3.56 -12.46 0 0 0
221 3 -7.12 -1.78 -12.46 0 0 0
222 1 -3.56 -3.56 -14.24 0 0 0
223 2 -1.78 -1.78 -14.24 0 0 0
224 3 -1.78 -3.56 -12.46 0 0 0
225 1 -3.56 -1.78 -12.46 0 0 0
226 3 -8.9 -19.58 -10.68 0 0 0
227 2 -8.9 -21.36 -8.9 0 0 0
228 5 -10.68 -19.58 -8.9 0 0 0
229 1 -7.12 -21.36 -10.68 0 0 0
230 5 -5.34 -19.58 -10.68 0 0 0
231 4 -5.34 -21.36 -8.9 0 0 0
232 5 -7.12 -19.58 -8.9 0 0 0
233 2 -3.56 -21.36 -10.68 0 0 0
234 4 -1.78 -19.58 -10.68 0 0 0
235 1 -1.78 -21.36 -8.9 0 0 0
236 3 -3.56 -19.58 -8.9 0 0 0
237 5 -12.46 -16.02 -10.68 0 0 0
238 1 -12.46 -17.8 -8.9 0 0 0
239 2 -14.24 -16.02 -8.9 0 0 0
240 4 -10.68 -17.8 -10.68 0 0 0
241 5 -8.9 -16.02 -10.68 0 0 0
242 1 -8.9 -17.8 -8.9 0 0 0
243 1 -10.68 -16.02 -8.9 0 0 0
244 2 -7.12 -17.8 -10.68 0 0 0
245 5 -5.34 -16.02 -10.68 0 0 0
246 2 -5.34 -17.8 -8.9 0 0 0
247 5 -7.12 -16.02 -8.9 0 0 0
248 1 -3.56 -17.8 -10.68 0 0 0
249 4 -1.78 -16.02 -10.68 0 0 0
250 2 -1.78 -17.8 -8.9 0 0 0
251 5 -3.56 -16.02 -8.9 0 0 0
252 5 -16.02 -12.46 -10.68 0 0 0
253 3 -16.02 -14.24 -8.9 0 0 0
254 2 -17.8 -12.46 -8.9 0 0 0
255 5 -14.24 -14.24 -10.68 0 0 0
256 4 -12.46 -12.46 -10.68 0 0 0
257 3 -12.46 -14.24 -8.9 0 0 0
258 5 -14.24 -12.46 -8.9 0 0 0
259 1 -10.68 -14.24 -10.68 0 0 0
260 2 -8.9 -12.46 -10.68 0 0 0
261 5 -8.9 -14.24 -8.9 0 0 0
262 4 -10.68 -12.46 -8.9 0 0 0
263 3 -7.12 -14.24 -10.68 0 0 0
264 1 -5.34 -12.46 -10.68 0 0 0
265 1 -5.34 -14.24 -8.9 0 0 0
266 1 -7.12 -12.46 -8.9 0 0 0
267 4 -3.56 -14.24 -10.68 0 0 0
268 2 -1.78 -12.46 -10.68 0 0 0
269 2 -1.78 -14.24 -8.9 0 0 0
270 5 -3.56 -12.46 -8.9 0 0 0
271 4 -19.58 -8.9 -10.68 0 0 0
272 3 -19.58 -10.68 -8.9 0 0 0
273 4 -21.36 -8.9 -8.9 0 0 0
274 4 -17.8 -10.68 -10.68 0 0 0
275 5 -16.02 -8.9 -10.68 0 0 0
276 2 -16.02 -10.68 -8.9 0 0 0
277 4 -17.8 -8.9 -8.9 0 0 0
278 5 -14.24 -10.68 -10.68 0 0 0
279 3 -12.46 -8.9 -10.68 0 0 0
280 2 -12.46 -10.68 -8.9 0 0 0
281 1 -14.24 -8.9 -8.9 0 0 0
282 2 -10.68 -10.68 -10.68 0 0 0
283 3 -8.9 -8.9 -10.68 0 0 0
284 2 -8.9 -10.68 -8.9 0 0 0
285 3 -10.68 -8.9 -8.9 0 0 0
286 2 -7.12 -10.68 -10.68 0 0 0
287 2 -5.34 -8.9 -10.68 0 0 0
288 3 -5.34 -10.68 -8.9 0 0 0
289 2 -7.12 -8.9 -8.9 0 0 0
290 4 -3.56 -10.68 -10.68 0 0 0
291 1 -1.78 -8.9 -10.68 0 0 0
292 4 -1.78 -10.68 -8.9 0 0 0
293 1 -3.56 -8.9 -8.9 0 0 0
294 5 -21.36 -7.12 -10.68 0 0 0
295 4 -19.58 -5.34 -10.68 0 0 0
296 5 -19.58 -7.12 -8.9 0 0 0
297 5 -21.36 -5.34 -8.9 0 0 0
298 2 -17.8 -7.12 -10.68 0 0 0
299 3 -16.02 -5.34 -10.68 0 0 0
300 1 -16.02 -7.12 -8.9 0 0 0
301 5 -17.8 -5.34 -8.9 0 0 0
302 3 -14.24 -7.12 -10.68 0 0 0
303 2 -12.46 -5.34 -10.68 0 0 0
304 2 -12.46 -7.12 -8.9 0 0 0
305 4 -14.24 -5.34 -8.9 0 0 0
306 4 -10.68 -7.12 -10.68 0 0 0
307 2 -8.9 -5.34 -10.68 0 0 0
308 1 -8.9 -7.12 -8.9 0 0 0
309 5 -10.68 -5.34 -8.9 0 0 0
310 5 -7.12 -7.12 -10.68 0 0 0
311 5 -5.34 -5.34 -10.68 0 0 0
312 3 -5.34 -7.12 -8.9 0 0 0
313 3 -7.12 -5.34 -8.9 0 0 0
314 3 -3.56 -7.12 -10.68 0 0 0
315 2 -1.78 -5.34 -10.68 0 0 0
316 1 -1.78 -7.12 -8.9 0 0 0
317 5 -3.56 -5.34 -8.9 0 0 0
318 2 -21.36 -3.56 -10.68 0 0 0
319 4 -19.58 -1.78 -10.68 0 0 0
320 4 -19.58 -3.56 -8.9 0 0 0
321 4 -21.36 -1.78 -8.9 0 0 0
322 3 -17.8 -3.56 -10.68 0 0 0
323 3 -16.02 -1.78 -10.68 0 0 0
324 4 -16.02 -3.56 -8.9 0 0 0
325 5 -17.8 -1.78 -8.9 0 0 0
326 3 -14.24 -3.56 -10.68 0 0 0
327 3 -12.46 -1.78 -10.68 0 0 0
328 3 -12.46 -3.56 -8.9 0 0 0
329 4 -14.24 -1.78 -8.9 0 0 0
330 1 -10.68 -3.56 -10.68 0 0 0
331 4 -8.9 -1.78 -10.68 0 0 0
332 1 -8.9 -3.56 -8.9 0 0 0
333 5 -10.68 -1.78 -8.9 0 0 0
334 3 -7.12 -3.56 -10.68 0 0 0
335 3 -5.34 -1.78 -10.68 0 0 0
336 3 -5.34 -3.56 -8.9 0 0 0
337 4 -7.12 -1.78 -8.9 0 0 0
338 4 -3.56 -3.56 -10.68 0 0 0
339 3 -1.78 -1.78 -10.68 0 0 0
340 2 -1.78 -3.56 -8.9 0 0 0
341 4 -3.56 -1.78 -8.9 0 0 0
342 4 -5.34 -23.14 -7.12 0 0 0
343 1 -7.12 -23.14 -5.34 0 0 0
344 4 -1.78 -23.14 -7.12 0 0 0
345 2 -3.56 -23.14 -5.34 0 0 0
346 4 -12.46 -19.58 -7.12 0 0 0
347 5 -14.24 -19.58 -5.34 0 0 0
348 4 -10.68 -21.36 -7.12 0 0 0
349 4 -8.9 -19.58 -7.12 0 0 0
350 1 -8.9 -21.36 -5.34 0 0 0
351 4 -10.68 -19.58 -5.34 0 0 0
352 2 -7.12 -21.36 -7.12 0 0 0
353 2 -5.34 -19.58 -7.12 0 0 0
354 2 -5.34 -21.36 -5.34 0 0 0
355 4 -7.12 -19.58 -5.34 0 0 0
356 3 -3.56 -21.36 -7.12 0 0 0
357 4 -1.78 -19.58 -7.12 0 0 0
358 4 -1.78 -21.36 -5.34 0 0 0
359 3 -3.56 -19.58 -5.34 0 0 0
360 5 -16.02 -16.02 -7.12 0 0 0
361 3 -16.02 -17.8 -5.34 0 0 0
362 4 -17.8 -16.02 -5.34 0 0 0
363 4 -14.24 -17.8 -7.12 0 0 0
364 4 -12.46 -16.02 -7.12 0 0 0
365 2 -12.46 -17.8 -5.34 0 0 0
366 5 -14.24 -16.02 -5.34 0 0 0
367 4 -10.68 -17.8 -7.12 0 0 0
368 4 -8.9 -16.02 -7.12 0 0 0
369 4 -8.9 -17.8 -5.34 0 0 0
370 5 -10.68 -16.02 -5.34 0 0 0
371 1 -7.12 -17.8 -7.12 0 0 0
372 4 -5.34 -16.02 -7.12 0 0 0
373 3 -5.34 -17.8 -5.34 0 0 0
374 5 -7.12 -16.02 -5.34 0 0 0
375 4 -3.56 -17.8 -7.12 0 0 0
376 1 -1.78 -16.02 -7.12 0 0 0
377 2 -1.78 -17.8 -5.34 0 0 0
378 3 -3.56 -16.02 -5.34 0 0 0
379 2 -19.58 -12.46 -7.12 0 0 0
380 5 -19.58 -14.24 -5.34 0 0 0
381 2 -17.8 -14.24 -7.12 0 0 0
382 4 -16.02 -12.46 -7.12 0 0 0
383 2 -16.02 -14.24 -5.34 0 0 0
384 4 -17.8 -12.46 -5.34 0 0 0
385 1 -14.24 -14.24 -7.12 0 0 0
386 5 -12.46 -12.46 -7.12 0 0 0
387 5 -12.46 -14.24 -5.34 0 0 0
388 1 -14.24 -12.46 -5.34 0 0 0
389 4 -10.68 -14.24 -7.12 0 0 0
390 3 -8.9 -12.46 -7.12 0 0 0
391 5 -8.9 -14.24 -5.34 0 0 0
392 2 -10.68 -12.46 -5.34 0 0 0
393 3 -7.12 -14.24 -7.12 0 0 0
394 2 -5.34 -12.46 -7.12 0 0 0
395 5 -5.34 -14.24 -5.34 0 0 0
396 5 -7.12 -12.46 -5.34 0 0 0
397 4 -3.56 -14.24 -7.12 0 0 0
398 5 -1.78 -12.46 -7.12 0 0 0
399 5 -1.78 -14.24 -5.34 0 0 0
400 1 -3.56 -12.46 -5.34 0 0 0
401 1 -21.36 -10.68 -7.12 0 0 0
402 5 -19.58 -8.9 -7.12 0 0 0
403 2 -19.58 -10.68 -5.34 0 0 0
404 5 -21.36 -8.9 -5.34 0 0 0
405 5 -17.8 -10.68 -7.12 0 0 0
406 1 -16.02 -8.9 -7.12 0 0 0
407 1 -16.02 -10.68 -5.34 0 0 0
408 2 -17.8 -8.9 -5.34 0 0 0
409 4 -14.24 -10.68 -7.12 0 0 0
410 4 -12.46 -8.9 -7.12 0 0 0
411 3 -12.46 -10.68 -5.34 0 0 0
412 5 -14.24 -8.9 -5.34 0 0 0
413 4 -10.68 -10.68 -7.12 0 0 0
414 4 -8.9 -8.9 -7.12 0 0 0
415 3 -8.9 -10.68 -5.34 0 0 0
416 2 -10.68 -8.9 -5.34 0 0 0
417 5 -7.12 -10.68 -7.12 0 0 0
418 2 -5.34 -8.9 -7.12 0 0 0
419 4 -5.34 -10.68 -5.34 0 0 0
420 5 -7.12 -8.9 -5.34 0 0 0
421 5 -3.56 -10.68 -7.12 0 0 0
422 3 -1.78 -8.9 -7.12 0 0 0
423 5 -1.78 -10.68 -5.34 0 0 0
424 2 -3.56 -8.9 -5.34 0 0 0
425 5 -23.14 -5.34 -7.12 0 0 0
426 5 -23.14 -7.12 -5.34 0 0 0
427 2 -21.36 -7.12 -7.12 0 0 0
428 4 -19.58 -5.34 -7.12 0 0 0
429 4 -19.58 -7.12 -5.34 0 0 0
430 4 -21.36 -5.34 -5.34 0 0 0
431 4 -17.8 -7.12 -7.12 0 0 0
432 5 -16.02 -5.34 -7.12 0 0 0
433 5 -16.02 -7.12 -5.34 0 0 0
434 3 -17.8 -5.34 -5.34 0 0 0
435 5 -14.24 -7.12 -7.12 0 0 0
436 1 -12.46 -5.34 -7.12 0 0 0
437 3 -12.46 -7.12 -5.34 0 0 0
438 1 -14.24 -5.34 -5.34 0 0 0
439 3 -10.68 -7.12 -7.12 0 0 0
440 4 -8.9 -5.34 -7.12 0 0 0
441 4 -8.9 -7.12 -5.34 0 0 0
442 4 -10.68 -5.34 -5.34 0 0 0
443 1 -7.12 -7.12 -7.12 0 0 0
444 5 -5.34 -5.34 -7.12 0 0 0
445 1 -5.34 -7.12 -5.34 0 0 0
446 2 -7.12 -5.34 -5.34 0 0 0
447 3 -3.56 -7.12 -7.12 0 0 0
448 5 -1.78 -5.34 -7.12 0 0 0
449 3 -1.78 -7.12 -5.34 0 0 0
450 3 -3.56 -5.34 -5.34 0 0 0
451 3 -23.14 -1.78 -7.12 0 0 0
452 1 -23.14 -3.56 -5.34 0 0 0
453 1 -21.36 -3.56 -7.12 0 0 0
454 2 -19.58 -1.78 -7.12 0 0 0
455 4 -19.58 -3.56 -5.34 0 0 0
456 3 -21.36 -1.78 -5.34 0 0 0
457 3 -17.8 -3.56 -7.12 0 0 0
458 2 -16.02 -1.78 -7.12 0 0 0
459 5 -16.02 -3.56 -5.34 0 0 0
460 3 -17.8 -1.78 -5.34 0 0 0
461 5 -14.24 -3.56 -7.12 0 0 0
462 1 -12.46 -1.78 -7.12 0 0 0
463 5 -12.46 -3.56 -5.34 0 0 0
464 1 -14.24 -1.78 -5.34 0 0 0
465 4 -10.68 -3.56 -7.12 0 0 0
466 2 -8.9 -1.78 -7.12 0 0 0
467 1 -8.9 -3.56 -5.34 0 0 0
468 1 -10.68 -1.78 -5.34 0 0 0
469 3 -7.12 -3.56 -7.12 0 0 0
470 4 -5.34 -1.78 -7.12 0 0 0
471 4 -5.34 -3.56 -5.34 0 0 0
472 2 -7.12 -1.78 -5.34 0 0 0
473 1 -3.56 -3.56 -7.12 0 0 0
474 5 -1.78 -1.78 -7.12 0 0 0
475 1 -1.78 -3.56 -5.34 0 0 0
476 4 -3.56 -1.78 -5.34 0 0 0
477 1 -5.34 -23.14 -3.56 0 0 0
478 3 -7.12 -23.14 -1.78 0 0 0
479 2 -1.78 -23.14 -3.56 0 0 0
480 5 -3.56 -23.14 -1.78 0 0 0
481 2 -12.46 -19.58 -3.56 0 0 0
482 2 -12.46 -21.36 -1.78 0 0 0
483 4 -14.24 -19.58 -1.78 0 0 0
484 4 -10.68 -21.36 -3.56 0 0 0
485 4 -8.9 -19.58 -3.56 0 0 0
486 2 -8.9 -21.36 -1.78 0 0 0
487 4 -10.68 -19.58 -1.78 0 0 0
488 3 -7.12 -21.36 -3.56 0 0 0
489 4 -5.34 -19.58 -3.56 0 0 0
490 5 -5.34 -21.36 -1.78 0 0 0
491 5 -7.12 -19.58 -1.78 0 0 0
492 3 -3.56 -21.36 -3.56 0 0 0
493 1 -1.78 -19.58 -3.56 0 0 0
494 1 -1.78 -21.36 -1.78 0 0 0
495 2 -3.56 -19.58 -1.78 0 0 0
496 4 -16.02 -16.02 -3.56 0 0 0
497 2 -16.02 -17.8 -1.78 0 0 0
498 1 -17.8 -16.02 -1.78 0 0 0
499 5 -14.24 -17.8 -3.56 0 0 0
500 3 -12.46 -16.02 -3.56 0 0 0
501 2 -12.46 -17.8 -1.78 0 0 0
502 3 -14.24 -16.02 -1.78 0 0 0
503 1 -10.68 -17.8 -3.56 0 0 0
504 1 -8.9 -16.02 -3.56 0 0 0
505 5 -8.9 -17.8 -1.78 0 0 0
506 2 -10.68 -16.02 -1.78 0 0 0
507 1 -7.12 -17.8 -3.56 0 0 0
508 4 -5.34 -16.02 -3.56 0 0 0
509 3 -5.34 -17.8 -1.78 0 0 0
510 2 -7.12 -16.02 -1.78 0 0 0
511 3 -3.56 -17.8 -3.56 0 0 0
512 3 -1.78 -16.02 -3.56 0 0 0
513 5 -1.78 -17.8 -1.78 0 0 0
514 3 -3.56 -16.02 -1.78 0 0 0
515 2 -19.58 -12.46 -3.56 0 0 0
516 1 -19.58 -14.24 -1.78 0 0 0
517 5 -21.36 -12.46 -1.78 0 0 0
518 5 -17.8 -14.24 -3.56 0 0 0
519 2 -16.02 -12.46 -3.56 0 0 0
520 3 -16.02 -14.24 -1.78 0 0 0
521 2 -17.8 -12.46 -1.78 0 0 0
522 5 -14.24 -14.24 -3.56 0 0 0
523 3 -12.46 -12.46 -3.56 0 0 0
524 4 -12.46 -14.24 -1.78 0 0 0
525 2 -14.24 -12.46 -1.78 0 0 0
526 5 -10.68 -14.24 -3.56 0 0 0
527 3 -8.9 -12.46 -3.56 0 0 0
528 5 -8.9 -14.24 -1.78 0 0 0
529 2 -10.68 -12.46 -1.78 0 0 0
530 3 -7.12 -14.24 -3.56 0 0 0
531 5 -5.34 -12.46 -3.56 0 0 0
532 5 -5.34 -14.24 -1.78 0 0 0
533 2 -7.12 -12.46 -1.78 0 0 0
534 3 -3.56 -14.24 -3.56 0 0 0
535 1 -1.78 -12.46 -3.56 0 0 0
536 1 -1.78 -14.24 -1.78 0 0 0
537 4 -3.56 -12.46 -1.78 0 0 0
538 2 -21.36 -10.68 -3.56 0 0 0
539 5 -19.58 -8.9 -3.56 0 0 0
540 1 -19.58 -10.68 -1.78 0 0 0
541 2 -21.36 -8.9 -1.78 0 0 0
542 4 -17.8 -10.68 -3.56 0 0 0
543 5 -16.02 -8.9 -3.56 0 0 0
544 3 -16.02 -10.68 -1.78 0 0 0
545 4 -17.8 -8.9 -1.78 0 0 0
546 2 -14.24 -10.68 -3.56 0 0 0
547 3 -12.46 -8.9 -3.56 0 0 0
548 1 -12.46 -10.68 -1.78 0 0 0
549 5 -14.24 -8.9 -1.78 0 0 0
550 3 -10.68 -10.68 -3.56 0 0 0
551 4 -8.9 -8.9 -3.56 0 0 0
552 1 -8.9 -10.68 -1.78 0 0 0
553 2 -10.68 -8.9 -1.78 0 0 0
554 1 -7.12 -10.68 -3.56 0 0 0
555 2 -5.34 -8.9 -3.56 0 0 0
556 4 -5.34 -10.68 -1.78 0 0 0
557 5 -7.12 -8.9 -1.78 0 0 0
558 5 -3.56 -10.68 -3.56 0 0 0
559 3 -1.78 -8.9 -3.56 0 0 0
560 1 -1.78 -10.68 -1.78 0 0 0
561 4 -3.56 -8.9 -1.78 0 0 0
562 1 -23.14 -5.34 -3.56 0 0 0
563 3 -23.14 -7.12 -1.78 0 0 0
564 1 -21.36 -7.12 -3.56 0 0 0
565 2 -19.58 -5.34 -3.56 0 0 0
566 3 -19.58 -7.12 -1.78 0 0 0
567 1 -21.36 -5.34 -1.78 0 0 0
568 3 -17.8 -7.12 -3.56 0 0 0
569 3 -16.02 -5.34 -3.56 0 0 0
570 3 -16.02 -7.12 -1.78 0 0 0
571 1 -17.8 -5.34 -1.78 0 0 0
572 5 -14.24 -7.12 -3.56 0 0 0
573 5 -12.46 -5.34 -3.56 0 0 0
574 3 -12.46 -7.12 -1.78 0 0 0
575 2 -14.24 -5.34 -1.78 0 0 0
576 5 -10.68 -7.12 -3.56 0 0 0
577 5 -8.9 -5.34 -3.56 0 0 0
578 1 -8.9 -7.12 -1.78 0 0 0
579 5 -10.68 -5.34 -1.78 0 0 0
580 1 -7.12 -7.12 -3.56 0 0 0
581 5 -5.34 -5.34 -3.56 0 0 0
582 5 -5.34 -7.12 -1.78 0 0 0
583 2 -7.12 -5.34 -1.78 0 0 0
584 4 -3.56 -7.12 -3.56 0 0 0
585 5 -1.78 -5.34 -3.56 0 0 0
586 5 -1.78 -7.12 -1.78 0 0 0
587 3 -3.56 -5.34 -1.78 0 0 0
588 3 -23.14 -1.78 -3.56 0 0 0
589 1 -23.14 -3.56 -1.78 0 0 0
590 4 -21.36 -3.56 -3.56 0 0 0
591 4 -19.58 -1.78 -3.56 0 0 0
592 3 -19.58 -3.56 -1.78 0 0 0
593 3 -21.36 -1.78 -1.78 0 0 0
594 4 -17.8 -3.56 -3.56 0 0 0
595 2 -16.02 -1.78 -3.56 0 0 0
596 4 -16.02 -3.56 -1.78 0 0 0
597 5 -17.8 -1.78 -1.78 0 0 0
598 3 -14.24 -3.56 -3.56 0 0 0
599 2 -12.46 -1.78 -3.56 0 0 0
600 4 -12.46 -3.56 -1.78 0 0 0
601 5 -14.24 -1.78 -1.78 0 0 0
602 5 -10.68 -3.56 -3.56 0 0 0
603 2 -8.9 -1.78 -3.56 0 0 0
604 5 -8.9 -3.56 -1.78 0 0 0
605 1 -10.68 -1.78 -1.78 0 0 0
606 5 -7.12 -3.56 -3.56 0 0 0
607 2 -5.34 -1.78 -3.56 0 0 0
608 4 -5.34 -3.56 -1.78 0 0 0
609 1 -7.12 -1.78 -1.78 0 0 0
610 2 -3.56 -3.56 -3.56 0 0 0
611 3 -1.78 -1.78 -3.56 0 0 0
612 4 -1.78 -3.56 -1.78 0 0 0
613 5 -3.56 -1.78 -1.78 0 0 0
614 5 -8.9 -23.14 0.0 0 0 0
615 1 -5.34 -23.14 0.0 0 0 0
616 2 -7.12 -23.14 1.78 0 0 0
617 2 -1.78 -23.14 0.0 0 0 0
618 5 -3.56 -23.14 1.78 0 0 0
619 5 -12.46 -19.58 0.0 0 0 0
620 5 -12.46 -21.36 1.78 0 0 0
621 1 -14.24 -19.58 1.78 0 0 0
622 2 -10.68 -21.36 0.0 0 0 0
623 1 -8.9 -19.58 0.0 0 0 0
624 4 -8.9 -21.36 1.78 0 0 0
625 2 -10.68 -19.58 1.78 0 0 0
626 1 -7.12 -21.36 0.0 0 0 0
627 1 -5.34 -19.58 0.0 0 0 0
628 1 -5.34 -21.36 1.78 0 0 0
629 4 -7.12 -19.58 1.78 0 0 0
630 4 -3.56 -21.36 0.0 0 0 0
631 1 -1.78 -19.58 0.0 0 0 0
632 1 -1.78 -21.36 1.78 0 0 0
633 1 -3.56 -19.58 1.78 0 0 0
634 5 -16.02 -16.02 0.0 0 0 0
635 3 -16.02 -17.8 1.78 0 0 0
636 5 -17.8 -16.02 1.78 0 0 0
637 5 -14.24 -17.8 0.0 0 0 0
638 1 -12.46 -16.02 0.0 0 0 0
639 4 -12.46 -17.8 1.78 0 0 0
640 2 -14.24 -16.02 1.78 0 0 0
641 1 -10.68 -17.8 0.0 0 0 0
642 2 -8.9 -16.02 0.0 0 0 0
643 3 -8.9 -17.8 1.78 0 0 0
644 4 -10.68 -16.02 1.78 0 0 0
645 1 -7.12 -17.8 0.0 0 0 0
646 3 -5.34 -16.02 0.0 0 0 0
647 4 -5.34 -17.8 1.78 0 0 0
648 5 -7.12 -16.02 1.78 0 0 0
649 3 -3.56 -17.8 0.0 0 0 0
650 5 -1.78 -16.02 0.0 0 0 0
651 1 -1.78 -17.8 1.78 0 0 0
652 1 -3.56 -16.02 1.78 0 0 0
653 4 -19.58 -12.46 0.0 0 0 0
654 2 -19.58 -14.24 1.78 0 0 0
655 4 -21.36 -12.46 1.78 0 0 0
656 4 -17.8 -14.24 0.0 0 0 0
657 3 -16.02 -12.46 0.0 0 0 0
658 2 -16.02 -14.24 1.78 0 0 0
659 1 -17.8 -12.46 1.78 0 0 0
660 3 -14.24 -14.24 0.0 0 0 0
661 1 -12.46 -12.46 0.0 0 0 0
662 2 -12.46 -14.24 1.78 0 0 0
663 5 -14.24 -12.46 1.78 0 0 0
664 5 -10.68 -14.24 0.0 0 0 0
665 5 -8.9 -12.46 0.0 0 0 0
666 5 -8.9 -14.24 1.78 0 0 0
667 5 -10.68 -12.46 1.78 0 0 0
668 1 -7.12 -14.24 0.0 0 0 0
669 1 -5.34 -12.46 0.0 0 0 0
670 2 -5.34 -14.24 1.78 0 0 0
671 3 -7.12 -12.46 1.78 0 0 0
672 5 -3.56 -14.24 0.0 0 0 0
673 1 -1.78 -12.46 0.0 0 0 0
674 4 -1.78 -14.24 1.78 0 0 0
675 2 -3.56 -12.46 1.78 0 0 0
676 3 -23.14 -8.9 0.0 0 0 0
677 3 -21.36 -10.68 0.0 0 0 0
678 5 -19.58 -8.9 0.0 0 0 0
679 3 -19.58 -10.68 1.78 0 0 0
680 5 -21.36 -8.9 1.78 0 0 0
681 5 -17.8 -10.68 0.0 0 0 0
682 2 -16.02 -8.9 0.0 0 0 0
683 1 -16.02 -10.68 1.78 0 0 0
684 5 -17.8 -8.9 1.78 0 0 0
685 2 -14.24 -10.68 0.0 0 0 0
686 2 -12.46 -8.9 0.0 0 0 0
687 4 -12.46 -10.68 1.78 0 0 0
688 3 -14.24 -8.9 1.78 0 0 0
689 1 -10.68 -10.68 0.0 0 0 0
690 2 -8.9 -8.9 0.0 0 0 0
691 5 -8.9 -10.68 1.78 0 0 0
692 4 -10.68 -8.9 1.78 0 0 0
693 4 -7.12 -10.68 0.0 0 0 0
694 4 -5.34 -8.9 0.0 0 0 0
695 1 -5.34 -10.68 1.78 0 0 0
696 1 -7.12 -8.9 1.78 0 0 0
697 4 -3.56 -10.68 0.0 0 0 0
698 4 -1.78 -8.9 0.0 0 0 0
699 4 -1.78 -10.68 1.78 0 0 0
700 4 -3.56 -8.9 1.78 0 0 0
701 4 -23.14 -5.34 0.0 0 0 0
702 4 -23.14 -7.12 1.78 0 0 0
703 5 -21.36 -7.12 0.0 0 0 0
704 2 -19.58 -5.34 0.0 0 0 0
705 4 -19.58 -7.12 1.78 0 0 0
706 5 -21.36 -5.34 1.78 0 0 0
707 1 -17.8 -7.12 0.0 0 0 0
708 5 -16.02 -5.34 0.0 0 0 0
709 4 -16.02 -7.12 1.78 0 0 0
710 3 -17.8 -5.34 1.78 0 0 0
711 1 -14.24 -7.12 0.0 0 0 0
712 2 -12.46 -5.34 0.0 0 0 0
713 1 -12.46 -7.12 1.78 0 0 0
714 5 -14.24 -5.34 1.78 0 0 0
715 5 -10.68 -7.12 0.0 0 0 0
716 2 -8.9 -5.34 0.0 0 0 0
717 5 -8.9 -7.12 1.78 0 0 0
718 4 -10.68 -5.34 1.78 0 0 0
719 3 -7.12 -7.12 0.0 0 0 0
720 4 -5.34 -5.34 0.0 0 0 0
721 3 -5.34 -7.12 1.78 0 0 0
722 5 -7.12 -5.34 1.78 0 0 0
723 3 -3.56 -7.12 0.0 0 0 0
724 1 -1.78 -5.34 0.0 0 0 0
725 2 -1.78 -7.12 1.78 0 0 0
726 1 -3.56 -5.34 1.78 0 0 0
727 4 -23.14 -1.78 0.0 0 0 0
728 2 -23.14 -3.56 1.78 0 0 0
729 4 -21.36 -3.56 0.0 0 0 0
730 5 -19.58 -1.78 0.0 0 0 0
731 2 -19.58 -3.56 1.78 0 0 0
732 3 -21.36 -1.78 1.78 0 0 0
733 1 -17.8 -3.56 0.0 0 0 0
734 5 -16.02 -1.78 0.0 0 0 0
735 3 -16.02 -3.56 1.78 0 0 0
736 3 -17.8 -1.78 1.78 0 0 0
737 5 -14.24 -3.56 0.0 0 0 0
738 4 -12.46 -1.78 0.0 0 0 0
739 1 -12.46 -3.56 1.78 0 0 0
740 3 -14.24 -1.78 1.78 0 0 0
741 5 -10.68 -3.56 0.0 0 0 0
742 1 -8.9 -1.78 0.0 0 0 0
743 4 -8.9 -3.56 1.78 0 0 0
744 3 -10.68 -1.78 1.78 0 0 0
745 4 -7.12 -3.56 0.0 0 0 0
746 3 -5.34 -1.78 0.0 0 0 0
747 4 -5.34 -3.56 1.78 0 0 0
748 3 -7.12 -1.78 1.78 0 0 0
749 1 -3.56 -3.56 0.0 0 0 0
750 1 -1.78 -1.78 0.0 0 0 0
751 5 -1.78 -3.56 1.78 0 0 0
752 3 -3.56 -1.78 1.78 0 0 0
753 3 -5.34 -23.14 3.56 0 0 0
754 2 -7.12 -23.14 5.34 0 0 0
755 1 -1.78 -23.14 3.56 0 0 0
756 3 -3.56 -23.14 5.34 0 0 0
757 5 -12.46 -19.58 3.56 0 0 0
758 1 -14.24 -19.58 5.34 0 0 0
759 5 -10.68 -21.36 3.56 0 0 0
760 3 -8.9 -19.58 3.56 0 0 0
761 5 -8.9 -21.36 5.34 0 0 0
762 5 -10.68 -19.58 5.34 0 0 0
763 5 -7.12 -21.36 3.56 0 0 0
764 3 -5.34 -19.58 3.56 0 0 0
765 3 -5.34 -21.36 5.34 0 0 0
766 2 -7.12 -19.58 5.34 0 0 0
767 2 -3.56 -21.36 3.56 0 0 0
768 1 -1.78 -19.58 3.56 0 0 0
769 4 -1.78 -21.36 5.34 0 0 0
770 5 -3.56 -19.58 5.34 0 0 0
771 2 -16.02 -16.02 3.56 0 0 0
772 2 -16.02 -17.8 5.34 0 0 0
773 3 -17.8 -16.02 5.34 0 0 0
774 3 -14.24 -17.8 3.56 0 0 0
775 1 -12.46 -16.02 3.56 0 0 0
776 1 -12.46 -17.8 5.34 0 0 0
777 5 -14.24 -16.02 5.34 0 0 0
778 1 -10.68 -17.8 3.56 0 0 0
779 1 -8.9 -16.02 3.56 0 0 0
780 4 -8.9 -17.8 5.34 0 0 0
781 2 -10.68 -16.02 5.34 0 0 0
782 1 -7.12 -17.8 3.56 0 0 0
783 4 -5.34 -16.02 3.56 0 0 0
784 5 -5.34 -17.8 5.34 0 0 0
785 3 -7.12 -16.02 5.34 0 0 0
786 4 -3.56 -17.8 3.56 0 0 0
787 4 -1.78 -16.02 3.56 0 0 0
788 4 -1.78 -17.8 5.34 0 0 0
789 5 -3.56 -16.02 5.34 0 0 0
790 3 -19.58 -12.46 3.56 0 0 0
791 1 -19.58 -14.24 5.34 0 0 0
792 1 -17.8 -14.24 3.56 0 0 0
793 5 -16.02 -12.46 3.56 0 0 0
794 5 -16.02 -14.24 5.34 0 0 0
795 3 -17.8 -12.46 5.34 0 0 0
796 5 -14.24 -14.24 3.56 0 0 0
797 5 -12.46 -12.46 3.56 0 0 0
798 5 -12.46 -14.24 5.34 0 0 0
799 5 -14.24 -12.46 5.34 0 0 0
800 5 -10.68 -14.24 3.56 0 0 0
801 5 -8.9 -12.46 3.56 0 0 0
802 1 -8.9 -14.24 5.34 0 0 0
803 1 -10.68 -12.46 5.34 0 0 0
804 4 -7.12 -14.24 3.56 0 0 0
805 3 -5.34 -12.46 3.56 0 0 0
806 1 -5.34 -14.24 5.34 0 0 0
807 5 -7.12 -12.46 5.34 0 0 0
808 1 -3.56 -14.24 3.56 0 0 0
809 3 -1.78 -12.46 3.56 0 0 0
810 3 -1.78 -14.24 5.34 0 0 0
811 3 -3.56 -12.46 5.34 0 0 0
812 1 -21.36 -10.68 3.56 0 0 0
813 2 -19.58 -8.9 3.56 0 0 0
814 4 -19.58 -10.68 5.34 0 0 0
815 3 -21.36 -8.9 5.34 0 0 0
816 4 -17.8 -10.68 3.56 0 0 0
817 2 -16.02 -8.9 3.56 0 0 0
818 2 -16.02 -10.68 5.34 0 0 0
819 5 -17.8 -8.9 5.34 0 0 0
820 2 -14.24 -10.68 3.56 0 0 0
821 3 -12.46 -8.9 3.56 0 0 0
822 2 -12.46 -10.68 5.34 0 0 0
823 3 -14.24 -8.9 5.34 0 0 0
824 1 -10.68 -10.68 3.56 0 0 0
825 1 -8.9 -8.9 3.56 0 0 0
826 3 -8.9 -10.68 5.34 0 0 0
827 2 -10.68 -8.9 5.34 0 0 0
828 3 -7.12 -10.68 3.56 0 0 0
829 1 -5.34 -8.9 3.56 0 0 0
830 4 -5.34 -10.68 5.34 0 0 0
831 4 -7.12 -8.9 5.34 0 0 0
832 3 -3.56 -10.68 3.56 0 0 0
833 1 -1.78 -8.9 3.56 0 0 0
834 3 -1.78 -10.68 5.34 0 0 0
835 3 -3.56 -8.9 5.34 0 0 0
836 1 -23.14 -5.34 3.56 0 0 0
837 5 -23.14 -7.12 5.34 0 0 0
838 4 -21.36 -7.12 3.56 0 0 0
839 5 -19.58 -5.34 3.56 0 0 0
840 3 -19.58 -7.12 5.34 0 0 0
841 1 -21.36 -5.34 5.34 0 0 0
842 2 -17.8 -7.12 3.56 0 0 0
843 4 -16.02 -5.34 3.56 0 0 0
844 3 -16.02 -7.12 5.34 0 0 0
845 3 -17.8 -5.34 5.34 0 0 0
846 4 -14.24 -7.12 3.56 0 0 0
847 1 -12.46 -5.34 3.56 0 0 0
848 2 -12.46 -7.12 5.34 0 0 0
849 3 -14.24 -5.34 5.34 0 0 0
850 3 -10.68 -7.12 3.56 0 0 0
851 2 -8.9 -5.34 3.56 0 0 0
852 1 -8.9 -7.12 5.34 0 0 0
853 5 -10.68 -5.34 5.34 0 0 0
854 4 -7.12 -7.12 3.56 0 0 0
855 5 -5.34 -5.34 3.56 0 0 0
856 3 -5.34 -7.12 5.34 0 0 0
857 4 -7.12 -5.34 5.34 0 0 0
858 1 -3.56 -7.12 3.56 0 0 0
859 1 -1.78 -5.34 3.56 0 0 0
860 4 -1.78 -7.12 5.34 0 0 0
861 1 -3.56 -5.34 5.34 0 0 0
862 4 -23.14 -1.78 3.56 0 0 0
863 2 -23.14 -3.56 5.34 0 0 0
864 3 -21.36 -3.56 3.56 0 0 0
865 4 -19.58 -1.78 3.56 0 0 0
866 3 -19.58 -3.56 5.34 0 0 0
867 3 -21.36 -1.78 5.34 0 0 0
868 2 -17.8 -3.56 3.56 0 0 0
869 3 -16.02 -1.78 3.56 0 0 0
870 4 -16.02 -3.56 5.34 0 0 0
871 2 -17.8 -1.78 5.34 0 0 0
872 3 -14.24 -3.56 3.56 0 0 0
873 4 -12.46 -1.78 3.56 0 0 0
874 3 -12.46 -3.56 5.34 0 0 0
875 5 -14.24 -1.78 5.34 0 0 0
876 5 -10.68 -3.56 3.56 0 0 0
877 4 -8.9 -1.78 3.56 0 0 0
878 4 -8.9 -3.56 5.34 0 0 0
879 1 -10.68 -1.78 5.34 0 0 0
880 1 -7.12 -3.56 3.56 0 0 0
881 1 -5.34 -1.78 3.56 0 0 0
882 2 -5.34 -3.56 5.34 0 0 0
883 3 -7.12 -1.78 5.34 0 0 0
884 5 -3.56 -3.56 3.56 0 0 0
885 1 -1.78 -1.78 3.56 0 0 0
886 3 -1.78 -3.56 5.34 0 0 0
887 1 -3.56 -1.78 5.34 0 0 0
888 2 -5.34 -23.14 7.12 0 0 0
889 3 -1.78 -23.14 7.12 0 0 0
890 1 -12.46 -19.58 7.12 0 0 0
891 1 -10.68 -21.36 7.12 0 0 0
892 1 -8.9 -19.58 7.12 0 0 0
893 2 -8.9 -21.36 8.9 0 0 0
894 1 -10.68 -19.58 8.9 0 0 0
895 1 -7.12 -21.36 7.12 0 0 0
896 2 -5.34 -19.58 7.12 0 0 0
897 3 -5.34 -21.36 8.9 0 0 0
898 1 -7.12 -19.58 8.9 0 0 0
899 3 -3.56 -21.36 7.12 0 0 0
900 4 -1.78 -19.58 7.12 0 0 0
901 2 -1.78 -21.36 8.9 0 0 0
902 1 -3.56 -19.58 8.9 0 0 0
903 1 -16.02 -16.02 7.12 0 0 0
904 2 -14.24 -17.8 7.12 0 0 0
905 3 -12.46 -16.02 7.12 0 0 0
906 4 -12.46 -17.8 8.9 0 0 0
907 4 -14.24 -16.02 8.9 0 0 0
908 2 -10.68 -17.8 7.12 0 0 0
909 5 -8.9 -16.02 7.12 0 0 0
910 1 -8.9 -17.8 8.9 0 0 0
911 2 -10.68 -16.02 8.9 0 0 0
912 4 -7.12 -17.8 7.12 0 0 0
913 2 -5.34 -16.02 7.12 0 0 0
914 3 -5.34 -17.8 8.9 0 0 0
915 3 -7.12 -16.02 8.9 0 0 0
916 4 -3.56 -17.8 7.12 0 0 0
917 5 -1.78 -16.02 7.12 0 0 0
918 3 -1.78 -17.8 8.9 0 0 0
919 5 -3.56 -16.02 8.9 0 0 0
920 4 -19.58 -12.46 7.12 0 0 0
921 1 -17.8 -14.24 7.12 0 0 0
922 4 -16.02 -12.46 7.12 0 0 0
923 5 -16.02 -14.24 8.9 0 0 0
924 2 -17.8 -12.46 8.9 0 0 0
925 4 -14.24 -14.24 7.12 0 0 0
926 4 -12.46 -12.46 7.12 0 0 0
927 2 -12.46 -14.24 8.9 0 0 0
928 5 -14.24 -12.46 8.9 0 0 0
929 5 -10.68 -14.24 7.12 0 0 0
930 3 -8.9 -12.46 7.12 0 0 0
931 1 -8.9 -14.24 8.9 0 0 0
932 1 -10.68 -12.46 8.9 0 0 0
933 2 -7.12 -14.24 7.12 0 0 0
934 5 -5.34 -12.46 7.12 0 0 0
935 4 -5.34 -14.24 8.9 0 0 0
936 4 -7.12 -12.46 8.9 0 0 0
937 1 -3.56 -14.24 7.12 0 0 0
938 3 -1.78 -12.46 7.12 0 0 0
939 2 -1.78 -14.24 8.9 0 0 0
940 2 -3.56 -12.46 8.9 0 0 0
941 2 -21.36 -10.68 7.12 0 0 0
942 4 -19.58 -8.9 7.12 0 0 0
943 2 -19.58 -10.68 8.9 0 0 0
944 3 -21.36 -8.9 8.9 0 0 0
945 1 -17.8 -10.68 7.12 0 0 0
946 1 -16.02 -8.9 7.12 0 0 0
947 2 -16.02 -10.68 8.9 0 0 0
948 2 -17.8 -8.9 8.9 0 0 0
949 2 -14.24 -10.68 7.12 0 0 0
950 4 -12.46 -8.9 7.12 0 0 0
951 4 -12.46 -10.68 8.9 0 0 0
952 5 -14.24 -8.9 8.9 0 0 0