# LAMMPS data file written by OVITO Basic 3.7.11
3043 atoms
5 atom types
-44.92 44.92 xlo xhi
-44.92 44.92 ylo yhi
-44.92 44.92 zlo zhi


Atoms  # atomic

1 2 -1.78 -3.56 -19.58 0 0 0
2 1 -3.56 -1.78 -19.58 0 0 0
3 3 -5.34 -10.68 -16.02 0 0 0
4 2 -7.12 -8.9 -16.02 0 0 0
5 3 -1.78 -8.9 -17.8 0 0 0
6 3 -1.78 -10.68 -16.02 0 0 0
7 5 -3.56 -8.9 -16.02 0 0 0
8 3 -8.9 -7.12 -16.02 0 0 0
9 4 -10.68 -5.34 -16.02 0 0 0
10 5 -5.34 -5.34 -17.8 0 0 0
11 5 -5.34 -7.12 -16.02 0 0 0
12 2 -7.12 -5.34 -16.02 0 0 0
13 5 -3.56 -7.12 -17.8 0 0 0
14 4 -1.78 -5.34 -17.8 0 0 0
15 4 -1.78 -7.12 -16.02 0 0 0
16 1 -3.56 -5.34 -16.02 0 0 0
17 1 -8.9 -1.78 -17.8 0 0 0
18 5 -8.9 -3.56 -16.02 0 0 0
19 1 -10.68 -1.78 -16.02 0 0 0
20 4 -7.12 -3.56 -17.8 0 0 0
21 4 -5.34 -1.78 -17.8 0 0 0
22 2 -5.34 -3.56 -16.02 0 0 0
23 4 -7.12 -1.78 -16.02 0 0 0
24 3 -3.56 -3.56 -17.8 0 0 0
25 2 -1.78 -1.78 -17.8 0 0 0
26 4 -1.78 -3.56 -16.02 0 0 0
27 5 -3.56 -1.78 -16.02 0 0 0
28 3 -5.34 -12.46 -14.24 0 0 0
29 1 -5.34 -14.24 -12.46 0 0 0
30 1 -7.12 -12.46 -12.46 0 0 0
31 5 -1.78 -12.46 -14.24 0 0 0
32 1 -1.78 -14.24 -12.46 0 0 0
33 5 -3.56 -12.46 -12.46 0 0 0
34 1 -8.9 -8.9 -14.24 0 0 0
35 3 -8.9 -10.68 -12.46 0 0 0
36 5 -10.68 -8.9 -12.46 0 0 0
37 3 -7.12 -10.68 -14.24 0 0 0
38 1 -5.34 -8.9 -14.24 0 0 0
39 1 -5.34 -10.68 -12.46 0 0 0
40 1 -7.12 -8.9 -12.46 0 0 0
41 2 -3.56 -10.68 -14.24 0 0 0
42 3 -1.78 -8.9 -14.24 0 0 0
43 3 -1.78 -10.68 -12.46 0 0 0
44 5 -3.56 -8.9 -12.46 0 0 0
45 2 -12.46 -5.34 -14.24 0 0 0
46 3 -12.46 -7.12 -12.46 0 0 0
47 5 -14.24 -5.34 -12.46 0 0 0
48 2 -10.68 -7.12 -14.24 0 0 0
49 2 -8.9 -5.34 -14.24 0 0 0
50 2 -8.9 -7.12 -12.46 0 0 0
51 2 -10.68 -5.34 -12.46 0 0 0
52 1 -7.12 -7.12 -14.24 0 0 0
53 3 -5.34 -5.34 -14.24 0 0 0
54 3 -5.34 -7.12 -12.46 0 0 0
55 3 -7.12 -5.34 -12.46 0 0 0
56 5 -3.56 -7.12 -14.24 0 0 0
57 5 -1.78 -5.34 -14.24 0 0 0
58 1 -1.78 -7.12 -12.46 0 0 0
59 3 -3.56 -5.34 -12.46 0 0 0
60 5 -12.46 -1.78 -14.24 0 0 0
61 5 -12.46 -3.56 -12.46 0 0 0
62 4 -14.24 -1.78 -12.46 0 0 0
63 2 -10.68 -3.56 -14.24 0 0 0
64 3 -8.9 -1.78 -14.24 0 0 0
65 3 -8.9 -3.56 -12.46 0 0 0
66 5 -10.68 -1.78 -12.46 0 0 0
67 1 -7.12 -3.56 -14.24 0 0 0
68 4 -5.34 -1.78 -14.24 0 0 0
69 4 -5.34 -3.56 -12.46 0 0 0
70 3 -7.12 -1.78 -12.46 0 0 0
71 1 -3.56 -3.56 -14.24 0 0 0
72 2 -1.78 -1.78 -14.24 0 0 0
73 3 -1.78 -3.56 -12.46 0 0 0
74 1 -3.56 -1.78 -12.46 0 0 0
75 5 -5.34 -16.02 -10.68 0 0 0
76 5 -7.12 -16.02 -8.9 0 0 0
77 4 -1.78 -16.02 -10.68 0 0 0
78 2 -1.78 -17.8 -8.9 0 0 0
79 5 -3.56 -16.02 -8.9 0 0 0
80 2 -8.9 -12.46 -10.68 0 0 0
81 5 -8.9 -14.24 -8.9 0 0 0
82 4 -10.68 -12.46 -8.9 0 0 0
83 3 -7.12 -14.24 -10.68 0 0 0
84 1 -5.34 -12.46 -10.68 0 0 0
85 1 -5.34 -14.24 -8.9 0 0 0
86 1 -7.12 -12.46 -8.9 0 0 0
87 4 -3.56 -14.24 -10.68 0 0 0
88 2 -1.78 -12.46 -10.68 0 0 0
89 2 -1.78 -14.24 -8.9 0 0 0
90 5 -3.56 -12.46 -8.9 0 0 0
91 3 -12.46 -8.9 -10.68 0 0 0
92 2 -12.46 -10.68 -8.9 0 0 0
93 1 -14.24 -8.9 -8.9 0 0 0
94 2 -10.68 -10.68 -10.68 0 0 0
95 3 -8.9 -8.9 -10.68 0 0 0
96 2 -8.9 -10.68 -8.9 0 0 0
97 3 -10.68 -8.9 -8.9 0 0 0
98 2 -7.12 -10.68 -10.68 0 0 0
99 2 -5.34 -8.9 -10.68 0 0 0
100 3 -5.34 -10.68 -8.9 0 0 0
101 2 -7.12 -8.9 -8.9 0 0 0
102 4 -3.56 -10.68 -10.68 0 0 0
103 1 -1.78 -8.9 -10.68 0 0 0
104 4 -1.78 -10.68 -8.9 0 0 0
105 1 -3.56 -8.9 -8.9 0 0 0
106 3 -16.02 -5.34 -10.68 0 0 0
107 1 -16.02 -7.12 -8.9 0 0 0
108 3 -14.24 -7.12 -10.68 0 0 0
109 2 -12.46 -5.34 -10.68 0 0 0
110 2 -12.46 -7.12 -8.9 0 0 0
111 4 -14.24 -5.34 -8.9 0 0 0
112 4 -10.68 -7.12 -10.68 0 0 0
113 2 -8.9 -5.34 -10.68 0 0 0
114 1 -8.9 -7.12 -8.9 0 0 0
115 5 -10.68 -5.34 -8.9 0 0 0
116 5 -7.12 -7.12 -10.68 0 0 0
117 5 -5.34 -5.34 -10.68 0 0 0
118 3 -5.34 -7.12 -8.9 0 0 0
119 3 -7.12 -5.34 -8.9 0 0 0
120 3 -3.56 -7.12 -10.68 0 0 0
121 2 -1.78 -5.34 -10.68 0 0 0
122 1 -1.78 -7.12 -8.9 0 0 0
123 5 -3.56 -5.34 -8.9 0 0 0
124 3 -16.02 -1.78 -10.68 0 0 0
125 4 -16.02 -3.56 -8.9 0 0 0
126 5 -17.8 -1.78 -8.9 0 0 0
127 3 -14.24 -3.56 -10.68 0 0 0
128 3 -12.46 -1.78 -10.68 0 0 0
129 3 -12.46 -3.56 -8.9 0 0 0
130 4 -14.24 -1.78 -8.9 0 0 0
131 1 -10.68 -3.56 -10.68 0 0 0
132 4 -8.9 -1.78 -10.68 0 0 0
133 1 -8.9 -3.56 -8.9 0 0 0
134 5 -10.68 -1.78 -8.9 0 0 0
135 3 -7.12 -3.56 -10.68 0 0 0
136 3 -5.34 -1.78 -10.68 0 0 0
137 3 -5.34 -3.56 -8.9 0 0 0
138 4 -7.12 -1.78 -8.9 0 0 0
139 4 -3.56 -3.56 -10.68 0 0 0
140 3 -1.78 -1.78 -10.68 0 0 0
141 2 -1.78 -3.56 -8.9 0 0 0
142 4 -3.56 -1.78 -8.9 0 0 0
143 4 -8.9 -16.02 -7.12 0 0 0
144 5 -10.68 -16.02 -5.34 0 0 0
145 4 -5.34 -16.02 -7.12 0 0 0
146 3 -5.34 -17.8 -5.34 0 0 0
147 5 -7.12 -16.02 -5.34 0 0 0
148 4 -3.56 -17.8 -7.12 0 0 0
149 1 -1.78 -16.02 -7.12 0 0 0
150 2 -1.78 -17.8 -5.34 0 0 0
151 3 -3.56 -16.02 -5.34 0 0 0
152 5 -12.46 -12.46 -7.12 0 0 0
153 5 -12.46 -14.24 -5.34 0 0 0
154 1 -14.24 -12.46 -5.34 0 0 0
155 4 -10.68 -14.24 -7.12 0 0 0
156 3 -8.9 -12.46 -7.12 0 0 0
157 5 -8.9 -14.24 -5.34 0 0 0
158 2 -10.68 -12.46 -5.34 0 0 0
159 3 -7.12 -14.24 -7.12 0 0 0
160 2 -5.34 -12.46 -7.12 0 0 0
161 5 -5.34 -14.24 -5.34 0 0 0
162 5 -7.12 -12.46 -5.34 0 0 0
163 4 -3.56 -14.24 -7.12 0 0 0
164 5 -1.78 -12.46 -7.12 0 0 0
165 5 -1.78 -14.24 -5.34 0 0 0
166 1 -3.56 -12.46 -5.34 0 0 0
167 1 -16.02 -8.9 -7.12 0 0 0
168 1 -16.02 -10.68 -5.34 0 0 0
169 4 -14.24 -10.68 -7.12 0 0 0
170 4 -12.46 -8.9 -7.12 0 0 0
171 3 -12.46 -10.68 -5.34 0 0 0
172 5 -14.24 -8.9 -5.34 0 0 0
173 4 -10.68 -10.68 -7.12 0 0 0
174 4 -8.9 -8.9 -7.12 0 0 0
175 3 -8.9 -10.68 -5.34 0 0 0
176 2 -10.68 -8.9 -5.34 0 0 0
177 5 -7.12 -10.68 -7.12 0 0 0
178 2 -5.34 -8.9 -7.12 0 0 0
179 4 -5.34 -10.68 -5.34 0 0 0
180 5 -7.12 -8.9 -5.34 0 0 0
181 5 -3.56 -10.68 -7.12 0 0 0
182 3 -1.78 -8.9 -7.12 0 0 0
183 5 -1.78 -10.68 -5.34 0 0 0
184 2 -3.56 -8.9 -5.34 0 0 0
185 5 -16.02 -5.34 -7.12 0 0 0
186 5 -16.02 -7.12 -5.34 0 0 0
187 3 -17.8 -5.34 -5.34 0 0 0
188 5 -14.24 -7.12 -7.12 0 0 0
189 1 -12.46 -5.34 -7.12 0 0 0
190 3 -12.46 -7.12 -5.34 0 0 0
191 1 -14.24 -5.34 -5.34 0 0 0
192 3 -10.68 -7.12 -7.12 0 0 0
193 4 -8.9 -5.34 -7.12 0 0 0
194 4 -8.9 -7.12 -5.34 0 0 0
195 4 -10.68 -5.34 -5.34 0 0 0
196 1 -7.12 -7.12 -7.12 0 0 0
197 5 -5.34 -5.34 -7.12 0 0 0
198 1 -5.34 -7.12 -5.34 0 0 0
199 2 -7.12 -5.34 -5.34 0 0 0
200 3 -3.56 -7.12 -7.12 0 0 0
201 5 -1.78 -5.34 -7.12 0 0 0
202 3 -1.78 -7.12 -5.34 0 0 0
203 3 -3.56 -5.34 -5.34 0 0 0
204 3 -17.8 -3.56 -7.12 0 0 0
205 2 -16.02 -1.78 -7.12 0 0 0
206 5 -16.02 -3.56 -5.34 0 0 0
207 3 -17.8 -1.78 -5.34 0 0 0
208 5 -14.24 -3.56 -7.12 0 0 0
209 1 -12.46 -1.78 -7.12 0 0 0
210 5 -12.46 -3.56 -5.34 0 0 0
211 1 -14.24 -1.78 -5.34 0 0 0
212 4 -10.68 -3.56 -7.12 0 0 0
213 2 -8.9 -1.78 -7.12 0 0 0
214 1 -8.9 -3.56 -5.34 0 0 0
215 1 -10.68 -1.78 -5.34 0 0 0
216 3 -7.12 -3.56 -7.12 0 0 0
217 4 -5.34 -1.78 -7.12 0 0 0
218 4 -5.34 -3.56 -5.34 0 0 0
219 2 -7.12 -1.78 -5.34 0 0 0
220 1 -3.56 -3.56 -7.12 0 0 0
221 5 -1.78 -1.78 -7.12 0 0 0
222 1 -1.78 -3.56 -5.34 0 0 0
223 4 -3.56 -1.78 -5.34 0 0 0
224 1 -1.78 -19.58 -3.56 0 0 0
225 2 -3.56 -19.58 -1.78 0 0 0
226 1 -8.9 -16.02 -3.56 0 0 0
227 5 -8.9 -17.8 -1.78 0 0 0
228 2 -10.68 -16.02 -1.78 0 0 0
229 1 -7.12 -17.8 -3.56 0 0 0
230 4 -5.34 -16.02 -3.56 0 0 0
231 3 -5.34 -17.8 -1.78 0 0 0
232 2 -7.12 -16.02 -1.78 0 0 0
233 3 -3.56 -17.8 -3.56 0 0 0
234 3 -1.78 -16.02 -3.56 0 0 0
235 5 -1.78 -17.8 -1.78 0 0 0
236 3 -3.56 -16.02 -1.78 0 0 0
237 3 -12.46 -12.46 -3.56 0 0 0
238 4 -12.46 -14.24 -1.78 0 0 0
239 2 -14.24 -12.46 -1.78 0 0 0
240 5 -10.68 -14.24 -3.56 0 0 0
241 3 -8.9 -12.46 -3.56 0 0 0
242 5 -8.9 -14.24 -1.78 0 0 0
243 2 -10.68 -12.46 -1.78 0 0 0
244 3 -7.12 -14.24 -3.56 0 0 0
245 5 -5.34 -12.46 -3.56 0 0 0
246 5 -5.34 -14.24 -1.78 0 0 0
247 2 -7.12 -12.46 -1.78 0 0 0
248 3 -3.56 -14.24 -3.56 0 0 0
249 1 -1.78 -12.46 -3.56 0 0 0
250 1 -1.78 -14.24 -1.78 0 0 0
251 4 -3.56 -12.46 -1.78 0 0 0
252 5 -16.02 -8.9 -3.56 0 0 0
253 3 -16.02 -10.68 -1.78 0 0 0
254 4 -17.8 -8.9 -1.78 0 0 0
255 2 -14.24 -10.68 -3.56 0 0 0
256 3 -12.46 -8.9 -3.56 0 0 0
257 1 -12.46 -10.68 -1.78 0 0 0
258 5 -14.24 -8.9 -1.78 0 0 0
259 3 -10.68 -10.68 -3.56 0 0 0
260 4 -8.9 -8.9 -3.56 0 0 0
261 1 -8.9 -10.68 -1.78 0 0 0
262 2 -10.68 -8.9 -1.78 0 0 0
263 1 -7.12 -10.68 -3.56 0 0 0
264 2 -5.34 -8.9 -3.56 0 0 0
265 4 -5.34 -10.68 -1.78 0 0 0
266 5 -7.12 -8.9 -1.78 0 0 0
267 5 -3.56 -10.68 -3.56 0 0 0
268 3 -1.78 -8.9 -3.56 0 0 0
269 1 -1.78 -10.68 -1.78 0 0 0
270 4 -3.56 -8.9 -1.78 0 0 0
271 3 -17.8 -7.12 -3.56 0 0 0
272 3 -16.02 -5.34 -3.56 0 0 0
273 3 -16.02 -7.12 -1.78 0 0 0
274 1 -17.8 -5.34 -1.78 0 0 0
275 5 -14.24 -7.12 -3.56 0 0 0
276 5 -12.46 -5.34 -3.56 0 0 0
277 3 -12.46 -7.12 -1.78 0 0 0
278 2 -14.24 -5.34 -1.78 0 0 0
279 5 -10.68 -7.12 -3.56 0 0 0
280 5 -8.9 -5.34 -3.56 0 0 0
281 1 -8.9 -7.12 -1.78 0 0 0
282 5 -10.68 -5.34 -1.78 0 0 0
283 1 -7.12 -7.12 -3.56 0 0 0
284 5 -5.34 -5.34 -3.56 0 0 0
285 5 -5.34 -7.12 -1.78 0 0 0
286 2 -7.12 -5.34 -1.78 0 0 0
287 4 -3.56 -7.12 -3.56 0 0 0
288 5 -1.78 -5.34 -3.56 0 0 0
289 5 -1.78 -7.12 -1.78 0 0 0
290 3 -3.56 -5.34 -1.78 0 0 0
291 4 -19.58 -1.78 -3.56 0 0 0
292 3 -19.58 -3.56 -1.78 0 0 0
293 4 -17.8 -3.56 -3.56 0 0 0
294 2 -16.02 -1.78 -3.56 0 0 0
295 4 -16.02 -3.56 -1.78 0 0 0
296 5 -17.8 -1.78 -1.78 0 0 0
297 3 -14.24 -3.56 -3.56 0 0 0
298 2 -12.46 -1.78 -3.56 0 0 0
299 4 -12.46 -3.56 -1.78 0 0 0
300 5 -14.24 -1.78 -1.78 0 0 0
301 5 -10.68 -3.56 -3.56 0 0 0
302 2 -8.9 -1.78 -3.56 0 0 0
303 5 -8.9 -3.56 -1.78 0 0 0
304 1 -10.68 -1.78 -1.78 0 0 0
305 5 -7.12 -3.56 -3.56 0 0 0
306 2 -5.34 -1.78 -3.56 0 0 0
307 4 -5.34 -3.56 -1.78 0 0 0
308 1 -7.12 -1.78 -1.78 0 0 0
309 2 -3.56 -3.56 -3.56 0 0 0
310 3 -1.78 -1.78 -3.56 0 0 0
311 4 -1.78 -3.56 -1.78 0 0 0
312 5 -3.56 -1.78 -1.78 0 0 0
313 1 -1.78 -19.58 0.0 0 0 0
314 1 -3.56 -19.58 1.78 0 0 0
315 2 -8.9 -16.02 0.0 0 0 0
316 3 -8.9 -17.8 1.78 0 0 0
317 4 -10.68 -16.02 1.78 0 0 0
318 1 -7.12 -17.8 0.0 0 0 0
319 3 -5.34 -16.02 0.0 0 0 0
320 4 -5.34 -17.8 1.78 0 0 0
321 5 -7.12 -16.02 1.78 0 0 0
322 3 -3.56 -17.8 0.0 0 0 0
323 5 -1.78 -16.02 0.0 0 0 0
324 1 -1.78 -17.8 1.78 0 0 0
325 1 -3.56 -16.02 1.78 0 0 0
326 1 -12.46 -12.46 0.0 0 0 0
327 2 -12.46 -14.24 1.78 0 0 0
328 5 -14.24 -12.46 1.78 0 0 0
329 5 -10.68 -14.24 0.0 0 0 0
330 5 -8.9 -12.46 0.0 0 0 0
331 5 -8.9 -14.24 1.78 0 0 0
332 5 -10.68 -12.46 1.78 0 0 0
333 1 -7.12 -14.24 0.0 0 0 0
334 1 -5.34 -12.46 0.0 0 0 0
335 2 -5.34 -14.24 1.78 0 0 0
336 3 -7.12 -12.46 1.78 0 0 0
337 5 -3.56 -14.24 0.0 0 0 0
338 1 -1.78 -12.46 0.0 0 0 0
339 4 -1.78 -14.24 1.78 0 0 0
340 2 -3.56 -12.46 1.78 0 0 0
341 2 -16.02 -8.9 0.0 0 0 0
342 1 -16.02 -10.68 1.78 0 0 0
343 5 -17.8 -8.9 1.78 0 0 0
344 2 -14.24 -10.68 0.0 0 0 0
345 2 -12.46 -8.9 0.0 0 0 0
346 4 -12.46 -10.68 1.78 0 0 0
347 3 -14.24 -8.9 1.78 0 0 0
348 1 -10.68 -10.68 0.0 0 0 0
349 2 -8.9 -8.9 0.0 0 0 0
350 5 -8.9 -10.68 1.78 0 0 0
351 4 -10.68 -8.9 1.78 0 0 0
352 4 -7.12 -10.68 0.0 0 0 0
353 4 -5.34 -8.9 0.0 0 0 0
354 1 -5.34 -10.68 1.78 0 0 0
355 1 -7.12 -8.9 1.78 0 0 0
356 4 -3.56 -10.68 0.0 0 0 0
357 4 -1.78 -8.9 0.0 0 0 0
358 4 -1.78 -10.68 1.78 0 0 0
359 4 -3.56 -8.9 1.78 0 0 0
360 1 -17.8 -7.12 0.0 0 0 0
361 5 -16.02 -5.34 0.0 0 0 0
362 4 -16.02 -7.12 1.78 0 0 0
363 3 -17.8 -5.34 1.78 0 0 0
364 1 -14.24 -7.12 0.0 0 0 0
365 2 -12.46 -5.34 0.0 0 0 0
366 1 -12.46 -7.12 1.78 0 0 0
367 5 -14.24 -5.34 1.78 0 0 0
368 5 -10.68 -7.12 0.0 0 0 0
369 2 -8.9 -5.34 0.0 0 0 0
370 5 -8.9 -7.12 1.78 0 0 0
371 4 -10.68 -5.34 1.78 0 0 0
372 3 -7.12 -7.12 0.0 0 0 0
373 4 -5.34 -5.34 0.0 0 0 0
374 3 -5.34 -7.12 1.78 0 0 0
375 5 -7.12 -5.34 1.78 0 0 0
376 3 -3.56 -7.12 0.0 0 0 0
377 1 -1.78 -5.34 0.0 0 0 0
378 2 -1.78 -7.12 1.78 0 0 0
379 1 -3.56 -5.34 1.78 0 0 0
380 5 -19.58 -1.78 0.0 0 0 0
381 2 -19.58 -3.56 1.78 0 0 0
382 1 -17.8 -3.56 0.0 0 0 0
383 5 -16.02 -1.78 0.0 0 0 0
384 3 -16.02 -3.56 1.78 0 0 0
385 3 -17.8 -1.78 1.78 0 0 0
386 5 -14.24 -3.56 0.0 0 0 0
387 4 -12.46 -1.78 0.0 0 0 0
388 1 -12.46 -3.56 1.78 0 0 0
389 3 -14.24 -1.78 1.78 0 0 0
390 5 -10.68 -3.56 0.0 0 0 0
391 1 -8.9 -1.78 0.0 0 0 0
392 4 -8.9 -3.56 1.78 0 0 0
393 3 -10.68 -1.78 1.78 0 0 0
394 4 -7.12 -3.56 0.0 0 0 0
395 3 -5.34 -1.78 0.0 0 0 0
396 4 -5.34 -3.56 1.78 0 0 0
397 3 -7.12 -1.78 1.78 0 0 0
398 1 -3.56 -3.56 0.0 0 0 0
399 1 -1.78 -1.78 0.0 0 0 0
400 5 -1.78 -3.56 1.78 0 0 0
401 3 -3.56 -1.78 1.78 0 0 0
402 1 -1.78 -19.58 3.56 0 0 0
403 1 -8.9 -16.02 3.56 0 0 0
404 2 -10.68 -16.02 5.34 0 0 0
405 1 -7.12 -17.8 3.56 0 0 0
406 4 -5.34 -16.02 3.56 0 0 0
407 5 -5.34 -17.8 5.34 0 0 0
408 3 -7.12 -16.02 5.34 0 0 0
409 4 -3.56 -17.8 3.56 0 0 0
410 4 -1.78 -16.02 3.56 0 0 0
411 4 -1.78 -17.8 5.34 0 0 0
412 5 -3.56 -16.02 5.34 0 0 0
413 5 -12.46 -12.46 3.56 0 0 0
414 5 -12.46 -14.24 5.34 0 0 0
415 5 -14.24 -12.46 5.34 0 0 0
416 5 -10.68 -14.24 3.56 0 0 0
417 5 -8.9 -12.46 3.56 0 0 0
418 1 -8.9 -14.24 5.34 0 0 0
419 1 -10.68 -12.46 5.34 0 0 0
420 4 -7.12 -14.24 3.56 0 0 0
421 3 -5.34 -12.46 3.56 0 0 0
422 1 -5.34 -14.24 5.34 0 0 0
423 5 -7.12 -12.46 5.34 0 0 0
424 1 -3.56 -14.24 3.56 0 0 0
425 3 -1.78 -12.46 3.56 0 0 0
426 3 -1.78 -14.24 5.34 0 0 0
427 3 -3.56 -12.46 5.34 0 0 0
428 2 -16.02 -8.9 3.56 0 0 0
429 2 -16.02 -10.68 5.34 0 0 0
430 2 -14.24 -10.68 3.56 0 0 0
431 3 -12.46 -8.9 3.56 0 0 0
432 2 -12.46 -10.68 5.34 0 0 0
433 3 -14.24 -8.9 5.34 0 0 0
434 1 -10.68 -10.68 3.56 0 0 0
435 1 -8.9 -8.9 3.56 0 0 0
436 3 -8.9 -10.68 5.34 0 0 0
437 2 -10.68 -8.9 5.34 0 0 0
438 3 -7.12 -10.68 3.56 0 0 0
439 1 -5.34 -8.9 3.56 0 0 0
440 4 -5.34 -10.68 5.34 0 0 0
441 4 -7.12 -8.9 5.34 0 0 0
442 3 -3.56 -10.68 3.56 0 0 0
443 1 -1.78 -8.9 3.56 0 0 0
444 3 -1.78 -10.68 5.34 0 0 0
445 3 -3.56 -8.9 5.34 0 0 0
446 2 -17.8 -7.12 3.56 0 0 0
447 4 -16.02 -5.34 3.56 0 0 0
448 3 -16.02 -7.12 5.34 0 0 0
449 3 -17.8 -5.34 5.34 0 0 0
450 4 -14.24 -7.12 3.56 0 0 0
451 1 -12.46 -5.34 3.56 0 0 0
452 2 -12.46 -7.12 5.34 0 0 0
453 3 -14.24 -5.34 5.34 0 0 0
454 3 -10.68 -7.12 3.56 0 0 0
455 2 -8.9 -5.34 3.56 0 0 0
456 1 -8.9 -7.12 5.34 0 0 0
457 5 -10.68 -5.34 5.34 0 0 0
458 4 -7.12 -7.12 3.56 0 0 0
459 5 -5.34 -5.34 3.56 0 0 0
460 3 -5.34 -7.12 5.34 0 0 0
461 4 -7.12 -5.34 5.34 0 0 0
462 1 -3.56 -7.12 3.56 0 0 0
463 1 -1.78 -5.34 3.56 0 0 0
464 4 -1.78 -7.12 5.34 0 0 0
465 1 -3.56 -5.34 5.34 0 0 0
466 4 -19.58 -1.78 3.56 0 0 0
467 2 -17.8 -3.56 3.56 0 0 0
468 3 -16.02 -1.78 3.56 0 0 0
469 4 -16.02 -3.56 5.34 0 0 0
470 2 -17.8 -1.78 5.34 0 0 0
471 3 -14.24 -3.56 3.56 0 0 0
472 4 -12.46 -1.78 3.56 0 0 0
473 3 -12.46 -3.56 5.34 0 0 0
474 5 -14.24 -1.78 5.34 0 0 0
475 5 -10.68 -3.56 3.56 0 0 0
476 4 -8.9 -1.78 3.56 0 0 0
477 4 -8.9 -3.56 5.34 0 0 0
478 1 -10.68 -1.78 5.34 0 0 0
479 1 -7.12 -3.56 3.56 0 0 0
480 1 -5.34 -1.78 3.56 0 0 0
481 2 -5.34 -3.56 5.34 0 0 0
482 3 -7.12 -1.78 5.34 0 0 0
483 5 -3.56 -3.56 3.56 0 0 0
484 1 -1.78 -1.78 3.56 0 0 0
485 3 -1.78 -3.56 5.34 0 0 0
486 1 -3.56 -1.78 5.34 0 0 0
487 5 -8.9 -16.02 7.12 0 0 0
488 2 -5.34 -16.02 7.12 0 0 0
489 3 -7.12 -16.02 8.9 0 0 0
490 4 -3.56 -17.8 7.12 0 0 0
491 5 -1.78 -16.02 7.12 0 0 0
492 3 -1.78 -17.8 8.9 0 0 0
493 5 -3.56 -16.02 8.9 0 0 0
494 4 -12.46 -12.46 7.12 0 0 0
495 5 -10.68 -14.24 7.12 0 0 0
496 3 -8.9 -12.46 7.12 0 0 0
497 1 -8.9 -14.24 8.9 0 0 0
498 1 -10.68 -12.46 8.9 0 0 0
499 2 -7.12 -14.24 7.12 0 0 0
500 5 -5.34 -12.46 7.12 0 0 0
501 4 -5.34 -14.24 8.9 0 0 0
502 4 -7.12 -12.46 8.9 0 0 0
503 1 -3.56 -14.24 7.12 0 0 0
504 3 -1.78 -12.46 7.12 0 0 0
505 2 -1.78 -14.24 8.9 0 0 0
506 2 -3.56 -12.46 8.9 0 0 0
507 1 -16.02 -8.9 7.12 0 0 0
508 2 -14.24 -10.68 7.12 0 0 0
509 4 -12.46 -8.9 7.12 0 0 0
510 4 -12.46 -10.68 8.9 0 0 0
511 5 -14.24 -8.9 8.9 0 0 0
512 5 -10.68 -10.68 7.12 0 0 0
513 4 -8.9 -8.9 7.12 0 0 0
514 1 -8.9 -10.68 8.9 0 0 0
515 2 -10.68 -8.9 8.9 0 0 0
516 4 -7.12 -10.68 7.12 0 0 0
517 3 -5.34 -8.9 7.12 0 0 0
518 5 -5.34 -10.68 8.9 0 0 0
519 1 -7.12 -8.9 8.9 0 0 0
520 1 -3.56 -10.68 7.12 0 0 0
521 3 -1.78 -8.9 7.12 0 0 0
522 3 -1.78 -10.68 8.9 0 0 0
523 4 -3.56 -8.9 8.9 0 0 0
524 5 -16.02 -5.34 7.12 0 0 0
525 5 -16.02 -7.12 8.9 0 0 0
526 2 -14.24 -7.12 7.12 0 0 0
527 3 -12.46 -5.34 7.12 0 0 0
528 3 -12.46 -7.12 8.9 0 0 0
529 3 -14.24 -5.34 8.9 0 0 0
530 2 -10.68 -7.12 7.12 0 0 0
531 4 -8.9 -5.34 7.12 0 0 0
532 1 -8.9 -7.12 8.9 0 0 0
533 2 -10.68 -5.34 8.9 0 0 0
534 3 -7.12 -7.12 7.12 0 0 0
535 2 -5.34 -5.34 7.12 0 0 0
536 2 -5.34 -7.12 8.9 0 0 0
537 1 -7.12 -5.34 8.9 0 0 0
538 1 -3.56 -7.12 7.12 0 0 0
539 3 -1.78 -5.34 7.12 0 0 0
540 3 -1.78 -7.12 8.9 0 0 0
541 4 -3.56 -5.34 8.9 0 0 0
542 3 -17.8 -3.56 7.12 0 0 0
543 5 -16.02 -1.78 7.12 0 0 0
544 3 -16.02 -3.56 8.9 0 0 0
545 3 -17.8 -1.78 8.9 0 0 0
546 1 -14.24 -3.56 7.12 0 0 0
547 3 -12.46 -1.78 7.12 0 0 0
548 4 -12.46 -3.56 8.9 0 0 0
549 4 -14.24 -1.78 8.9 0 0 0
550 4 -10.68 -3.56 7.12 0 0 0
551 2 -8.9 -1.78 7.12 0 0 0
552 1 -8.9 -3.56 8.9 0 0 0
553 4 -10.68 -1.78 8.9 0 0 0
554 2 -7.12 -3.56 7.12 0 0 0
555 4 -5.34 -1.78 7.12 0 0 0
556 1 -5.34 -3.56 8.9 0 0 0
557 2 -7.12 -1.78 8.9 0 0 0
558 5 -3.56 -3.56 7.12 0 0 0
559 4 -1.78 -1.78 7.12 0 0 0
560 2 -1.78 -3.56 8.9 0 0 0
561 2 -3.56 -1.78 8.9 0 0 0
562 4 -5.34 -16.02 10.68 0 0 0
563 4 -1.78 -16.02 10.68 0 0 0
564 2 -8.9 -12.46 10.68 0 0 0
565 5 -7.12 -14.24 10.68 0 0 0
566 2 -5.34 -12.46 10.68 0 0 0
567 5 -5.34 -14.24 12.46 0 0 0
568 5 -7.12 -12.46 12.46 0 0 0
569 2 -3.56 -14.24 10.68 0 0 0
570 5 -1.78 -12.46 10.68 0 0 0
571 2 -1.78 -14.24 12.46 0 0 0
572 2 -3.56 -12.46 12.46 0 0 0
573 1 -12.46 -8.9 10.68 0 0 0
574 4 -10.68 -10.68 10.68 0 0 0
575 2 -8.9 -8.9 10.68 0 0 0
576 2 -8.9 -10.68 12.46 0 0 0
577 2 -10.68 -8.9 12.46 0 0 0
578 1 -7.12 -10.68 10.68 0 0 0
579 2 -5.34 -8.9 10.68 0 0 0
580 4 -5.34 -10.68 12.46 0 0 0
581 1 -7.12 -8.9 12.46 0 0 0
582 3 -3.56 -10.68 10.68 0 0 0
583 5 -1.78 -8.9 10.68 0 0 0
584 5 -1.78 -10.68 12.46 0 0 0
585 4 -3.56 -8.9 12.46 0 0 0
586 5 -16.02 -5.34 10.68 0 0 0
587 1 -14.24 -7.12 10.68 0 0 0
588 2 -12.46 -5.34 10.68 0 0 0
589 5 -12.46 -7.12 12.46 0 0 0
590 1 -14.24 -5.34 12.46 0 0 0
591 5 -10.68 -7.12 10.68 0 0 0
592 1 -8.9 -5.34 10.68 0 0 0
593 2 -8.9 -7.12 12.46 0 0 0
594 3 -10.68 -5.34 12.46 0 0 0
595 2 -7.12 -7.12 10.68 0 0 0
596 5 -5.34 -5.34 10.68 0 0 0
597 4 -5.34 -7.12 12.46 0 0 0
598 2 -7.12 -5.34 12.46 0 0 0
599 5 -3.56 -7.12 10.68 0 0 0
600 3 -1.78 -5.34 10.68 0 0 0
601 3 -1.78 -7.12 12.46 0 0 0
602 5 -3.56 -5.34 12.46 0 0 0
603 2 -16.02 -1.78 10.68 0 0 0
604 1 -14.24 -3.56 10.68 0 0 0
605 3 -12.46 -1.78 10.68 0 0 0
606 4 -12.46 -3.56 12.46 0 0 0
607 4 -14.24 -1.78 12.46 0 0 0
608 1 -10.68 -3.56 10.68 0 0 0
609 5 -8.9 -1.78 10.68 0 0 0
610 1 -8.9 -3.56 12.46 0 0 0
611 1 -10.68 -1.78 12.46 0 0 0
612 4 -7.12 -3.56 10.68 0 0 0
613 3 -5.34 -1.78 10.68 0 0 0
614 3 -5.34 -3.56 12.46 0 0 0
615 4 -7.12 -1.78 12.46 0 0 0
616 4 -3.56 -3.56 10.68 0 0 0
617 3 -1.78 -1.78 10.68 0 0 0
618 3 -1.78 -3.56 12.46 0 0 0
619 2 -3.56 -1.78 12.46 0 0 0
620 4 -5.34 -12.46 14.24 0 0 0
621 2 -1.78 -12.46 14.24 0 0 0
622 3 -8.9 -8.9 14.24 0 0 0
623 5 -7.12 -10.68 14.24 0 0 0
624 2 -5.34 -8.9 14.24 0 0 0
625 1 -5.34 -10.68 16.02 0 0 0
626 2 -7.12 -8.9 16.02 0 0 0
627 5 -3.56 -10.68 14.24 0 0 0
628 3 -1.78 -8.9 14.24 0 0 0
629 4 -1.78 -10.68 16.02 0 0 0
630 4 -3.56 -8.9 16.02 0 0 0
631 1 -12.46 -5.34 14.24 0 0 0
632 3 -10.68 -7.12 14.24 0 0 0
633 5 -8.9 -5.34 14.24 0 0 0
634 2 -8.9 -7.12 16.02 0 0 0
635 4 -10.68 -5.34 16.02 0 0 0
636 3 -7.12 -7.12 14.24 0 0 0
637 3 -5.34 -5.34 14.24 0 0 0
638 1 -5.34 -7.12 16.02 0 0 0
639 3 -7.12 -5.34 16.02 0 0 0
640 3 -3.56 -7.12 14.24 0 0 0
641 5 -1.78 -5.34 14.24 0 0 0
642 3 -1.78 -7.12 16.02 0 0 0
643 5 -3.56 -5.34 16.02 0 0 0
644 5 -12.46 -1.78 14.24 0 0 0
645 3 -10.68 -3.56 14.24 0 0 0
646 3 -8.9 -1.78 14.24 0 0 0
647 3 -8.9 -3.56 16.02 0 0 0
648 4 -10.68 -1.78 16.02 0 0 0
649 4 -7.12 -3.56 14.24 0 0 0
650 5 -5.34 -1.78 14.24 0 0 0
651 4 -5.34 -3.56 16.02 0 0 0
652 1 -7.12 -1.78 16.02 0 0 0
653 2 -3.56 -3.56 14.24 0 0 0
654 5 -1.78 -1.78 14.24 0 0 0
655 3 -1.78 -3.56 16.02 0 0 0
656 4 -3.56 -1.78 16.02 0 0 0
657 3 -1.78 -8.9 17.8 0 0 0
658 1 -5.34 -5.34 17.8 0 0 0
659 5 -3.56 -7.12 17.8 0 0 0
660 5 -1.78 -5.34 17.8 0 0 0
661 4 -8.9 -1.78 17.8 0 0 0
662 4 -7.12 -3.56 17.8 0 0 0
663 5 -5.34 -1.78 17.8 0 0 0
664 3 -3.56 -3.56 17.8 0 0 0
665 3 -1.78 -1.78 17.8 0 0 0
666 1 -1.78 -3.56 19.58 0 0 0
667 1 -3.56 -1.78 19.58 0 0 0
668 4 -1.78 0.0 -19.58 0 0 0
669 4 -3.56 1.78 -19.58 0 0 0
670 2 -1.78 3.56 -19.58 0 0 0
671 1 -8.9 1.78 -17.8 0 0 0
672 2 -8.9 0.0 -16.02 0 0 0
673 4 -10.68 1.78 -16.02 0 0 0
674 3 -7.12 0.0 -17.8 0 0 0
675 1 -5.34 1.78 -17.8 0 0 0
676 5 -5.34 0.0 -16.02 0 0 0
677 5 -7.12 1.78 -16.02 0 0 0
678 5 -3.56 0.0 -17.8 0 0 0
679 3 -1.78 1.78 -17.8 0 0 0
680 3 -1.78 0.0 -16.02 0 0 0
681 3 -3.56 1.78 -16.02 0 0 0
682 2 -8.9 3.56 -16.02 0 0 0
683 2 -10.68 5.34 -16.02 0 0 0
684 3 -7.12 3.56 -17.8 0 0 0
685 1 -5.34 5.34 -17.8 0 0 0
686 5 -5.34 3.56 -16.02 0 0 0
687 1 -7.12 5.34 -16.02 0 0 0
688 5 -3.56 3.56 -17.8 0 0 0
689 3 -1.78 5.34 -17.8 0 0 0
690 1 -1.78 3.56 -16.02 0 0 0
691 1 -3.56 5.34 -16.02 0 0 0
692 5 -8.9 7.12 -16.02 0 0 0
693 2 -5.34 7.12 -16.02 0 0 0
694 1 -7.12 8.9 -16.02 0 0 0
695 2 -3.56 7.12 -17.8 0 0 0
696 2 -1.78 8.9 -17.8 0 0 0
697 3 -1.78 7.12 -16.02 0 0 0
698 4 -3.56 8.9 -16.02 0 0 0
699 4 -5.34 10.68 -16.02 0 0 0
700 5 -1.78 10.68 -16.02 0 0 0
701 2 -12.46 1.78 -14.24 0 0 0
702 5 -12.46 0.0 -12.46 0 0 0
703 1 -14.24 1.78 -12.46 0 0 0
704 3 -10.68 0.0 -14.24 0 0 0
705 2 -8.9 1.78 -14.24 0 0 0
706 2 -8.9 0.0 -12.46 0 0 0
707 5 -10.68 1.78 -12.46 0 0 0
708 4 -7.12 0.0 -14.24 0 0 0
709 5 -5.34 1.78 -14.24 0 0 0
710 4 -5.34 0.0 -12.46 0 0 0
711 5 -7.12 1.78 -12.46 0 0 0
712 4 -3.56 0.0 -14.24 0 0 0
713 5 -1.78 1.78 -14.24 0 0 0
714 3 -1.78 0.0 -12.46 0 0 0
715 2 -3.56 1.78 -12.46 0 0 0
716 4 -12.46 5.34 -14.24 0 0 0
717 3 -12.46 3.56 -12.46 0 0 0
718 1 -14.24 5.34 -12.46 0 0 0
719 3 -10.68 3.56 -14.24 0 0 0
720 3 -8.9 5.34 -14.24 0 0 0
721 5 -8.9 3.56 -12.46 0 0 0
722 2 -10.68 5.34 -12.46 0 0 0
723 1 -7.12 3.56 -14.24 0 0 0
724 2 -5.34 5.34 -14.24 0 0 0
725 3 -5.34 3.56 -12.46 0 0 0
726 5 -7.12 5.34 -12.46 0 0 0
727 3 -3.56 3.56 -14.24 0 0 0
728 4 -1.78 5.34 -14.24 0 0 0
729 3 -1.78 3.56 -12.46 0 0 0
730 4 -3.56 5.34 -12.46 0 0 0
731 2 -12.46 7.12 -12.46 0 0 0
732 4 -10.68 7.12 -14.24 0 0 0
733 2 -8.9 8.9 -14.24 0 0 0
734 5 -8.9 7.12 -12.46 0 0 0
735 1 -10.68 8.9 -12.46 0 0 0
736 5 -7.12 7.12 -14.24 0 0 0
737 1 -5.34 8.9 -14.24 0 0 0
738 4 -5.34 7.12 -12.46 0 0 0
739 4 -7.12 8.9 -12.46 0 0 0
740 5 -3.56 7.12 -14.24 0 0 0
741 2 -1.78 8.9 -14.24 0 0 0
742 4 -1.78 7.12 -12.46 0 0 0
743 3 -3.56 8.9 -12.46 0 0 0
744 4 -8.9 10.68 -12.46 0 0 0
745 2 -7.12 10.68 -14.24 0 0 0
746 5 -5.34 12.46 -14.24 0 0 0
747 4 -5.34 10.68 -12.46 0 0 0
748 2 -7.12 12.46 -12.46 0 0 0
749 4 -3.56 10.68 -14.24 0 0 0
750 3 -1.78 12.46 -14.24 0 0 0
751 5 -1.78 10.68 -12.46 0 0 0
752 1 -3.56 12.46 -12.46 0 0 0
753 3 -5.34 14.24 -12.46 0 0 0
754 4 -1.78 14.24 -12.46 0 0 0
755 4 -16.02 1.78 -10.68 0 0 0
756 4 -16.02 0.0 -8.9 0 0 0
757 3 -17.8 1.78 -8.9 0 0 0
758 2 -14.24 0.0 -10.68 0 0 0
759 1 -12.46 1.78 -10.68 0 0 0
760 1 -12.46 0.0 -8.9 0 0 0
761 1 -14.24 1.78 -8.9 0 0 0
762 3 -10.68 0.0 -10.68 0 0 0
763 4 -8.9 1.78 -10.68 0 0 0
764 5 -8.9 0.0 -8.9 0 0 0
765 3 -10.68 1.78 -8.9 0 0 0
766 5 -7.12 0.0 -10.68 0 0 0
767 4 -5.34 1.78 -10.68 0 0 0
768 1 -5.34 0.0 -8.9 0 0 0
769 3 -7.12 1.78 -8.9 0 0 0
770 4 -3.56 0.0 -10.68 0 0 0
771 2 -1.78 1.78 -10.68 0 0 0
772 4 -1.78 0.0 -8.9 0 0 0
773 3 -3.56 1.78 -8.9 0 0 0
774 5 -16.02 5.34 -10.68 0 0 0
775 3 -16.02 3.56 -8.9 0 0 0
776 3 -14.24 3.56 -10.68 0 0 0
777 3 -12.46 5.34 -10.68 0 0 0
778 2 -12.46 3.56 -8.9 0 0 0
779 5 -14.24 5.34 -8.9 0 0 0
780 2 -10.68 3.56 -10.68 0 0 0
781 4 -8.9 5.34 -10.68 0 0 0
782 5 -8.9 3.56 -8.9 0 0 0
783 4 -10.68 5.34 -8.9 0 0 0
784 1 -7.12 3.56 -10.68 0 0 0
785 4 -5.34 5.34 -10.68 0 0 0
786 5 -5.34 3.56 -8.9 0 0 0
787 4 -7.12 5.34 -8.9 0 0 0
788 2 -3.56 3.56 -10.68 0 0 0
789 4 -1.78 5.34 -10.68 0 0 0
790 4 -1.78 3.56 -8.9 0 0 0
791 2 -3.56 5.34 -8.9 0 0 0
792 1 -16.02 7.12 -8.9 0 0 0
793 4 -14.24 7.12 -10.68 0 0 0
794 5 -12.46 8.9 -10.68 0 0 0
795 2 -12.46 7.12 -8.9 0 0 0
796 3 -14.24 8.9 -8.9 0 0 0
797 4 -10.68 7.12 -10.68 0 0 0
798 2 -8.9 8.9 -10.68 0 0 0
799 1 -8.9 7.12 -8.9 0 0 0
800 1 -10.68 8.9 -8.9 0 0 0
801 4 -7.12 7.12 -10.68 0 0 0
802 5 -5.34 8.9 -10.68 0 0 0
803 1 -5.34 7.12 -8.9 0 0 0
804 2 -7.12 8.9 -8.9 0 0 0
805 1 -3.56 7.12 -10.68 0 0 0
806 4 -1.78 8.9 -10.68 0 0 0
807 2 -1.78 7.12 -8.9 0 0 0
808 1 -3.56 8.9 -8.9 0 0 0
809 2 -12.46 10.68 -8.9 0 0 0
810 4 -10.68 10.68 -10.68 0 0 0
811 4 -8.9 12.46 -10.68 0 0 0
812 5 -8.9 10.68 -8.9 0 0 0
813 4 -10.68 12.46 -8.9 0 0 0
814 5 -7.12 10.68 -10.68 0 0 0
815 1 -5.34 12.46 -10.68 0 0 0
816 5 -5.34 10.68 -8.9 0 0 0
817 3 -7.12 12.46 -8.9 0 0 0
818 2 -3.56 10.68 -10.68 0 0 0
819 3 -1.78 12.46 -10.68 0 0 0
820 5 -1.78 10.68 -8.9 0 0 0
821 2 -3.56 12.46 -8.9 0 0 0
822 1 -8.9 14.24 -8.9 0 0 0
823 1 -7.12 14.24 -10.68 0 0 0
824 3 -5.34 16.02 -10.68 0 0 0
825 3 -5.34 14.24 -8.9 0 0 0
826 2 -7.12 16.02 -8.9 0 0 0
827 3 -3.56 14.24 -10.68 0 0 0
828 5 -1.78 16.02 -10.68 0 0 0
829 1 -1.78 14.24 -8.9 0 0 0
830 5 -3.56 16.02 -8.9 0 0 0
831 1 -1.78 17.8 -8.9 0 0 0
832 2 -17.8 0.0 -7.12 0 0 0
833 5 -16.02 1.78 -7.12 0 0 0
834 2 -16.02 0.0 -5.34 0 0 0
835 3 -17.8 1.78 -5.34 0 0 0
836 4 -14.24 0.0 -7.12 0 0 0
837 5 -12.46 1.78 -7.12 0 0 0
838 4 -12.46 0.0 -5.34 0 0 0
839 5 -14.24 1.78 -5.34 0 0 0
840 1 -10.68 0.0 -7.12 0 0 0
841 5 -8.9 1.78 -7.12 0 0 0
842 3 -8.9 0.0 -5.34 0 0 0
843 4 -10.68 1.78 -5.34 0 0 0
844 5 -7.12 0.0 -7.12 0 0 0
845 2 -5.34 1.78 -7.12 0 0 0
846 2 -5.34 0.0 -5.34 0 0 0
847 4 -7.12 1.78 -5.34 0 0 0
848 3 -3.56 0.0 -7.12 0 0 0
849 1 -1.78 1.78 -7.12 0 0 0
850 5 -1.78 0.0 -5.34 0 0 0
851 2 -3.56 1.78 -5.34 0 0 0
852 3 -17.8 3.56 -7.12 0 0 0
853 2 -16.02 5.34 -7.12 0 0 0
854 3 -16.02 3.56 -5.34 0 0 0
855 5 -17.8 5.34 -5.34 0 0 0
856 1 -14.24 3.56 -7.12 0 0 0
857 1 -12.46 5.34 -7.12 0 0 0
858 2 -12.46 3.56 -5.34 0 0 0
859 2 -14.24 5.34 -5.34 0 0 0
860 5 -10.68 3.56 -7.12 0 0 0
861 1 -8.9 5.34 -7.12 0 0 0
862 5 -8.9 3.56 -5.34 0 0 0
863 3 -10.68 5.34 -5.34 0 0 0
864 4 -7.12 3.56 -7.12 0 0 0
865 3 -5.34 5.34 -7.12 0 0 0
866 1 -5.34 3.56 -5.34 0 0 0
867 5 -7.12 5.34 -5.34 0 0 0
868 5 -3.56 3.56 -7.12 0 0 0
869 5 -1.78 5.34 -7.12 0 0 0
870 4 -1.78 3.56 -5.34 0 0 0
871 1 -3.56 5.34 -5.34 0 0 0
872 3 -16.02 8.9 -7.12 0 0 0
873 3 -16.02 7.12 -5.34 0 0 0
874 3 -14.24 7.12 -7.12 0 0 0
875 2 -12.46 8.9 -7.12 0 0 0
876 3 -12.46 7.12 -5.34 0 0 0
877 1 -14.24 8.9 -5.34 0 0 0
878 2 -10.68 7.12 -7.12 0 0 0
879 2 -8.9 8.9 -7.12 0 0 0
880 4 -8.9 7.12 -5.34 0 0 0
881 4 -10.68 8.9 -5.34 0 0 0
882 3 -7.12 7.12 -7.12 0 0 0
883 1 -5.34 8.9 -7.12 0 0 0
884 5 -5.34 7.12 -5.34 0 0 0
885 1 -7.12 8.9 -5.34 0 0 0
886 4 -3.56 7.12 -7.12 0 0 0
887 5 -1.78 8.9 -7.12 0 0 0
888 2 -1.78 7.12 -5.34 0 0 0
889 3 -3.56 8.9 -5.34 0 0 0
890 5 -16.02 10.68 -5.34 0 0 0
891 4 -14.24 10.68 -7.12 0 0 0
892 1 -12.46 12.46 -7.12 0 0 0
893 4 -12.46 10.68 -5.34 0 0 0
894 1 -14.24 12.46 -5.34 0 0 0
895 1 -10.68 10.68 -7.12 0 0 0
896 4 -8.9 12.46 -7.12 0 0 0
897 4 -8.9 10.68 -5.34 0 0 0
898 4 -10.68 12.46 -5.34 0 0 0
899 2 -7.12 10.68 -7.12 0 0 0
900 4 -5.34 12.46 -7.12 0 0 0
901 5 -5.34 10.68 -5.34 0 0 0
902 5 -7.12 12.46 -5.34 0 0 0
903 2 -3.56 10.68 -7.12 0 0 0
904 3 -1.78 12.46 -7.12 0 0 0
905 3 -1.78 10.68 -5.34 0 0 0
906 5 -3.56 12.46 -5.34 0 0 0
907 5 -12.46 14.24 -5.34 0 0 0
908 5 -10.68 14.24 -7.12 0 0 0
909 5 -8.9 16.02 -7.12 0 0 0
910 4 -8.9 14.24 -5.34 0 0 0
911 2 -10.68 16.02 -5.34 0 0 0
912 5 -7.12 14.24 -7.12 0 0 0
913 1 -5.34 16.02 -7.12 0 0 0
914 4 -5.34 14.24 -5.34 0 0 0
915 3 -7.12 16.02 -5.34 0 0 0
916 1 -3.56 14.24 -7.12 0 0 0
917 4 -1.78 16.02 -7.12 0 0 0
918 5 -1.78 14.24 -5.34 0 0 0
919 1 -3.56 16.02 -5.34 0 0 0
920 4 -5.34 17.8 -5.34 0 0 0
921 2 -3.56 17.8 -7.12 0 0 0
922 1 -1.78 17.8 -5.34 0 0 0
923 1 -19.58 1.78 -3.56 0 0 0
924 1 -19.58 0.0 -1.78 0 0 0
925 1 -17.8 0.0 -3.56 0 0 0
926 5 -16.02 1.78 -3.56 0 0 0
927 3 -16.02 0.0 -1.78 0 0 0
928 4 -17.8 1.78 -1.78 0 0 0
929 5 -14.24 0.0 -3.56 0 0 0
930 1 -12.46 1.78 -3.56 0 0 0
931 1 -12.46 0.0 -1.78 0 0 0
932 4 -14.24 1.78 -1.78 0 0 0
933 3 -10.68 0.0 -3.56 0 0 0
934 1 -8.9 1.78 -3.56 0 0 0
935 4 -8.9 0.0 -1.78 0 0 0
936 4 -10.68 1.78 -1.78 0 0 0
937 2 -7.12 0.0 -3.56 0 0 0
938 5 -5.34 1.78 -3.56 0 0 0
939 1 -5.34 0.0 -1.78 0 0 0
940 1 -7.12 1.78 -1.78 0 0 0
941 2 -3.56 0.0 -3.56 0 0 0
942 2 -1.78 1.78 -3.56 0 0 0
943 5 -1.78 0.0 -1.78 0 0 0
944 4 -3.56 1.78 -1.78 0 0 0
945 4 -19.58 3.56 -1.78 0 0 0
946 4 -17.8 3.56 -3.56 0 0 0
947 3 -16.02 5.34 -3.56 0 0 0
948 3 -16.02 3.56 -1.78 0 0 0
949 1 -17.8 5.34 -1.78 0 0 0
950 1 -14.24 3.56 -3.56 0 0 0
951 3 -12.46 5.34 -3.56 0 0 0
952 5 -12.46 3.56 -1.78 0 0 0
953 1 -14.24 5.34 -1.78 0 0 0
954 5 -10.68 3.56 -3.56 0 0 0
955 1 -8.9 5.34 -3.56 0 0 0
956 3 -8.9 3.56 -1.78 0 0 0
957 2 -10.68 5.34 -1.78 0 0 0
958 4 -7.12 3.56 -3.56 0 0 0
959 3 -5.34 5.34 -3.56 0 0 0
960 3 -5.34 3.56 -1.78 0 0 0
961 3 -7.12 5.34 -1.78 0 0 0
962 5 -3.56 3.56 -3.56 0 0 0
963 2 -1.78 5.34 -3.56 0 0 0
964 2 -1.78 3.56 -1.78 0 0 0
965 5 -3.56 5.34 -1.78 0 0 0
966 4 -17.8 7.12 -3.56 0 0 0
967 4 -16.02 8.9 -3.56 0 0 0
968 5 -16.02 7.12 -1.78 0 0 0
969 2 -17.8 8.9 -1.78 0 0 0
970 1 -14.24 7.12 -3.56 0 0 0
971 3 -12.46 8.9 -3.56 0 0 0