# LAMMPS data file written by OVITO Basic 3.7.11
369 atoms
5 atom types
-34.92 34.92 xlo xhi
-34.92 34.92 ylo yhi
-34.92 34.92 zlo zhi


Atoms  # atomic

1 2 -1.78 -3.56 -8.9 0 0 0
2 4 -3.56 -1.78 -8.9 0 0 0
3 5 1.78 -3.56 -8.9 0 0 0
4 3 0.0 -1.78 -8.9 0 0 0
5 3 3.56 -1.78 -8.9 0 0 0
6 4 -1.78 0.0 -8.9 0 0 0
7 3 -3.56 1.78 -8.9 0 0 0
8 4 1.78 0.0 -8.9 0 0 0
9 3 0.0 1.78 -8.9 0 0 0
10 4 3.56 1.78 -8.9 0 0 0
11 4 -1.78 3.56 -8.9 0 0 0
12 4 1.78 3.56 -8.9 0 0 0
13 5 -1.78 -5.34 -7.12 0 0 0
14 3 -1.78 -7.12 -5.34 0 0 0
15 3 -3.56 -5.34 -5.34 0 0 0
16 5 1.78 -5.34 -7.12 0 0 0
17 5 1.78 -7.12 -5.34 0 0 0
18 3 0.0 -5.34 -5.34 0 0 0
19 2 3.56 -5.34 -5.34 0 0 0
20 4 -5.34 -1.78 -7.12 0 0 0
21 4 -5.34 -3.56 -5.34 0 0 0
22 2 -7.12 -1.78 -5.34 0 0 0
23 1 -3.56 -3.56 -7.12 0 0 0
24 5 -1.78 -1.78 -7.12 0 0 0
25 1 -1.78 -3.56 -5.34 0 0 0
26 4 -3.56 -1.78 -5.34 0 0 0
27 2 0.0 -3.56 -7.12 0 0 0
28 4 1.78 -1.78 -7.12 0 0 0
29 2 1.78 -3.56 -5.34 0 0 0
30 2 0.0 -1.78 -5.34 0 0 0
31 1 3.56 -3.56 -7.12 0 0 0
32 2 5.34 -1.78 -7.12 0 0 0
33 3 5.34 -3.56 -5.34 0 0 0
34 2 3.56 -1.78 -5.34 0 0 0
35 2 7.12 -1.78 -5.34 0 0 0
36 2 -5.34 1.78 -7.12 0 0 0
37 2 -5.34 0.0 -5.34 0 0 0
38 4 -7.12 1.78 -5.34 0 0 0
39 3 -3.56 0.0 -7.12 0 0 0
40 1 -1.78 1.78 -7.12 0 0 0
41 5 -1.78 0.0 -5.34 0 0 0
42 2 -3.56 1.78 -5.34 0 0 0
43 5 0.0 0.0 -7.12 0 0 0
44 3 1.78 1.78 -7.12 0 0 0
45 4 1.78 0.0 -5.34 0 0 0
46 2 0.0 1.78 -5.34 0 0 0
47 3 3.56 0.0 -7.12 0 0 0
48 5 5.34 1.78 -7.12 0 0 0
49 1 5.34 0.0 -5.34 0 0 0
50 1 3.56 1.78 -5.34 0 0 0
51 3 7.12 1.78 -5.34 0 0 0
52 1 -5.34 3.56 -5.34 0 0 0
53 5 -3.56 3.56 -7.12 0 0 0
54 5 -1.78 5.34 -7.12 0 0 0
55 4 -1.78 3.56 -5.34 0 0 0
56 1 -3.56 5.34 -5.34 0 0 0
57 4 0.0 3.56 -7.12 0 0 0
58 5 1.78 5.34 -7.12 0 0 0
59 2 1.78 3.56 -5.34 0 0 0
60 4 0.0 5.34 -5.34 0 0 0
61 2 3.56 3.56 -7.12 0 0 0
62 3 5.34 3.56 -5.34 0 0 0
63 5 3.56 5.34 -5.34 0 0 0
64 2 -1.78 7.12 -5.34 0 0 0
65 3 1.78 7.12 -5.34 0 0 0
66 3 -1.78 -8.9 -3.56 0 0 0
67 4 -3.56 -8.9 -1.78 0 0 0
68 5 1.78 -8.9 -3.56 0 0 0
69 2 0.0 -8.9 -1.78 0 0 0
70 4 3.56 -8.9 -1.78 0 0 0
71 5 -5.34 -5.34 -3.56 0 0 0
72 5 -5.34 -7.12 -1.78 0 0 0
73 2 -7.12 -5.34 -1.78 0 0 0
74 4 -3.56 -7.12 -3.56 0 0 0
75 5 -1.78 -5.34 -3.56 0 0 0
76 5 -1.78 -7.12 -1.78 0 0 0
77 3 -3.56 -5.34 -1.78 0 0 0
78 2 0.0 -7.12 -3.56 0 0 0
79 1 1.78 -5.34 -3.56 0 0 0
80 4 1.78 -7.12 -1.78 0 0 0
81 3 0.0 -5.34 -1.78 0 0 0
82 3 3.56 -7.12 -3.56 0 0 0
83 1 5.34 -5.34 -3.56 0 0 0
84 1 5.34 -7.12 -1.78 0 0 0
85 2 3.56 -5.34 -1.78 0 0 0
86 2 7.12 -5.34 -1.78 0 0 0
87 2 -8.9 -1.78 -3.56 0 0 0
88 5 -8.9 -3.56 -1.78 0 0 0
89 5 -7.12 -3.56 -3.56 0 0 0
90 2 -5.34 -1.78 -3.56 0 0 0
91 4 -5.34 -3.56 -1.78 0 0 0
92 1 -7.12 -1.78 -1.78 0 0 0
93 2 -3.56 -3.56 -3.56 0 0 0
94 3 -1.78 -1.78 -3.56 0 0 0
95 4 -1.78 -3.56 -1.78 0 0 0
96 5 -3.56 -1.78 -1.78 0 0 0
97 5 0.0 -3.56 -3.56 0 0 0
98 2 1.78 -1.78 -3.56 0 0 0
99 4 1.78 -3.56 -1.78 0 0 0
100 3 0.0 -1.78 -1.78 0 0 0
101 2 3.56 -3.56 -3.56 0 0 0
102 1 5.34 -1.78 -3.56 0 0 0
103 5 5.34 -3.56 -1.78 0 0 0
104 3 3.56 -1.78 -1.78 0 0 0
105 1 7.12 -3.56 -3.56 0 0 0
106 5 8.9 -1.78 -3.56 0 0 0
107 4 8.9 -3.56 -1.78 0 0 0
108 4 7.12 -1.78 -1.78 0 0 0
109 1 -8.9 1.78 -3.56 0 0 0
110 4 -8.9 0.0 -1.78 0 0 0
111 2 -7.12 0.0 -3.56 0 0 0
112 5 -5.34 1.78 -3.56 0 0 0
113 1 -5.34 0.0 -1.78 0 0 0
114 1 -7.12 1.78 -1.78 0 0 0
115 2 -3.56 0.0 -3.56 0 0 0
116 2 -1.78 1.78 -3.56 0 0 0
117 5 -1.78 0.0 -1.78 0 0 0
118 4 -3.56 1.78 -1.78 0 0 0
119 2 0.0 0.0 -3.56 0 0 0
120 5 1.78 1.78 -3.56 0 0 0
121 4 1.78 0.0 -1.78 0 0 0
122 3 0.0 1.78 -1.78 0 0 0
123 4 3.56 0.0 -3.56 0 0 0
124 2 5.34 1.78 -3.56 0 0 0
125 1 5.34 0.0 -1.78 0 0 0
126 1 3.56 1.78 -1.78 0 0 0
127 2 7.12 0.0 -3.56 0 0 0
128 3 8.9 1.78 -3.56 0 0 0
129 5 8.9 0.0 -1.78 0 0 0
130 2 7.12 1.78 -1.78 0 0 0
131 3 -8.9 3.56 -1.78 0 0 0
132 4 -7.12 3.56 -3.56 0 0 0
133 3 -5.34 5.34 -3.56 0 0 0
134 3 -5.34 3.56 -1.78 0 0 0
135 3 -7.12 5.34 -1.78 0 0 0
136 5 -3.56 3.56 -3.56 0 0 0
137 2 -1.78 5.34 -3.56 0 0 0
138 2 -1.78 3.56 -1.78 0 0 0
139 5 -3.56 5.34 -1.78 0 0 0
140 1 0.0 3.56 -3.56 0 0 0
141 4 1.78 5.34 -3.56 0 0 0
142 1 1.78 3.56 -1.78 0 0 0
143 4 0.0 5.34 -1.78 0 0 0
144 4 3.56 3.56 -3.56 0 0 0
145 1 5.34 5.34 -3.56 0 0 0
146 1 5.34 3.56 -1.78 0 0 0
147 5 3.56 5.34 -1.78 0 0 0
148 4 7.12 3.56 -3.56 0 0 0
149 1 8.9 3.56 -1.78 0 0 0
150 4 7.12 5.34 -1.78 0 0 0
151 1 -5.34 7.12 -1.78 0 0 0
152 1 -3.56 7.12 -3.56 0 0 0
153 5 -1.78 8.9 -3.56 0 0 0
154 2 -1.78 7.12 -1.78 0 0 0
155 4 -3.56 8.9 -1.78 0 0 0
156 2 0.0 7.12 -3.56 0 0 0
157 2 1.78 8.9 -3.56 0 0 0
158 1 1.78 7.12 -1.78 0 0 0
159 3 0.0 8.9 -1.78 0 0 0
160 1 3.56 7.12 -3.56 0 0 0
161 5 5.34 7.12 -1.78 0 0 0
162 4 3.56 8.9 -1.78 0 0 0
163 4 -1.78 -8.9 0.0 0 0 0
164 4 -3.56 -8.9 1.78 0 0 0
165 3 1.78 -8.9 0.0 0 0 0
166 4 0.0 -8.9 1.78 0 0 0
167 4 3.56 -8.9 1.78 0 0 0
168 4 -5.34 -5.34 0.0 0 0 0
169 3 -5.34 -7.12 1.78 0 0 0
170 5 -7.12 -5.34 1.78 0 0 0
171 3 -3.56 -7.12 0.0 0 0 0
172 1 -1.78 -5.34 0.0 0 0 0
173 2 -1.78 -7.12 1.78 0 0 0
174 1 -3.56 -5.34 1.78 0 0 0
175 5 0.0 -7.12 0.0 0 0 0
176 4 1.78 -5.34 0.0 0 0 0
177 5 1.78 -7.12 1.78 0 0 0
178 1 0.0 -5.34 1.78 0 0 0
179 2 3.56 -7.12 0.0 0 0 0
180 1 5.34 -5.34 0.0 0 0 0
181 5 5.34 -7.12 1.78 0 0 0
182 5 3.56 -5.34 1.78 0 0 0
183 1 7.12 -5.34 1.78 0 0 0
184 1 -8.9 -1.78 0.0 0 0 0
185 4 -8.9 -3.56 1.78 0 0 0
186 4 -7.12 -3.56 0.0 0 0 0
187 3 -5.34 -1.78 0.0 0 0 0
188 4 -5.34 -3.56 1.78 0 0 0
189 3 -7.12 -1.78 1.78 0 0 0
190 1 -3.56 -3.56 0.0 0 0 0
191 1 -1.78 -1.78 0.0 0 0 0
192 5 -1.78 -3.56 1.78 0 0 0
193 3 -3.56 -1.78 1.78 0 0 0
194 4 0.0 -3.56 0.0 0 0 0
195 1 1.78 -1.78 0.0 0 0 0
196 5 1.78 -3.56 1.78 0 0 0
197 5 0.0 -1.78 1.78 0 0 0
198 4 3.56 -3.56 0.0 0 0 0
199 4 5.34 -1.78 0.0 0 0 0
200 5 5.34 -3.56 1.78 0 0 0
201 2 3.56 -1.78 1.78 0 0 0
202 5 7.12 -3.56 0.0 0 0 0
203 4 8.9 -1.78 0.0 0 0 0
204 4 8.9 -3.56 1.78 0 0 0
205 5 7.12 -1.78 1.78 0 0 0
206 3 -8.9 1.78 0.0 0 0 0
207 5 -8.9 0.0 1.78 0 0 0
208 4 -7.12 0.0 0.0 0 0 0
209 4 -5.34 1.78 0.0 0 0 0
210 3 -5.34 0.0 1.78 0 0 0
211 4 -7.12 1.78 1.78 0 0 0
212 5 -3.56 0.0 0.0 0 0 0
213 2 -1.78 1.78 0.0 0 0 0
214 1 -1.78 0.0 1.78 0 0 0
215 2 -3.56 1.78 1.78 0 0 0
216 4 0.0 0.0 0.0 0 0 0
217 1 1.78 1.78 0.0 0 0 0
218 3 1.78 0.0 1.78 0 0 0
219 1 0.0 1.78 1.78 0 0 0
220 2 3.56 0.0 0.0 0 0 0
221 5 5.34 1.78 0.0 0 0 0
222 5 5.34 0.0 1.78 0 0 0
223 5 3.56 1.78 1.78 0 0 0
224 3 7.12 0.0 0.0 0 0 0
225 2 8.9 1.78 0.0 0 0 0
226 5 8.9 0.0 1.78 0 0 0
227 3 7.12 1.78 1.78 0 0 0
228 3 -8.9 3.56 1.78 0 0 0
229 1 -7.12 3.56 0.0 0 0 0
230 3 -5.34 5.34 0.0 0 0 0
231 1 -5.34 3.56 1.78 0 0 0
232 1 -7.12 5.34 1.78 0 0 0
233 4 -3.56 3.56 0.0 0 0 0
234 4 -1.78 5.34 0.0 0 0 0
235 4 -1.78 3.56 1.78 0 0 0
236 3 -3.56 5.34 1.78 0 0 0
237 2 0.0 3.56 0.0 0 0 0
238 5 1.78 5.34 0.0 0 0 0
239 2 1.78 3.56 1.78 0 0 0
240 5 0.0 5.34 1.78 0 0 0
241 3 3.56 3.56 0.0 0 0 0
242 4 5.34 5.34 0.0 0 0 0
243 2 5.34 3.56 1.78 0 0 0
244 5 3.56 5.34 1.78 0 0 0
245 3 7.12 3.56 0.0 0 0 0
246 1 8.9 3.56 1.78 0 0 0
247 1 7.12 5.34 1.78 0 0 0
248 2 -5.34 7.12 1.78 0 0 0
249 2 -3.56 7.12 0.0 0 0 0
250 1 -1.78 8.9 0.0 0 0 0
251 1 -1.78 7.12 1.78 0 0 0
252 3 -3.56 8.9 1.78 0 0 0
253 2 0.0 7.12 0.0 0 0 0
254 2 1.78 8.9 0.0 0 0 0
255 4 1.78 7.12 1.78 0 0 0
256 1 0.0 8.9 1.78 0 0 0
257 2 3.56 7.12 0.0 0 0 0
258 2 5.34 7.12 1.78 0 0 0
259 1 3.56 8.9 1.78 0 0 0
260 1 -1.78 -8.9 3.56 0 0 0
261 2 1.78 -8.9 3.56 0 0 0
262 5 -5.34 -5.34 3.56 0 0 0
263 1 -3.56 -7.12 3.56 0 0 0
264 1 -1.78 -5.34 3.56 0 0 0
265 4 -1.78 -7.12 5.34 0 0 0
266 1 -3.56 -5.34 5.34 0 0 0
267 1 0.0 -7.12 3.56 0 0 0
268 2 1.78 -5.34 3.56 0 0 0
269 5 1.78 -7.12 5.34 0 0 0
270 2 0.0 -5.34 5.34 0 0 0
271 1 3.56 -7.12 3.56 0 0 0
272 3 5.34 -5.34 3.56 0 0 0
273 5 3.56 -5.34 5.34 0 0 0
274 4 -8.9 -1.78 3.56 0 0 0
275 1 -7.12 -3.56 3.56 0 0 0
276 1 -5.34 -1.78 3.56 0 0 0
277 2 -5.34 -3.56 5.34 0 0 0
278 3 -7.12 -1.78 5.34 0 0 0
279 5 -3.56 -3.56 3.56 0 0 0
280 1 -1.78 -1.78 3.56 0 0 0
281 3 -1.78 -3.56 5.34 0 0 0
282 1 -3.56 -1.78 5.34 0 0 0
283 2 0.0 -3.56 3.56 0 0 0
284 5 1.78 -1.78 3.56 0 0 0
285 5 1.78 -3.56 5.34 0 0 0
286 3 0.0 -1.78 5.34 0 0 0
287 1 3.56 -3.56 3.56 0 0 0
288 5 5.34 -1.78 3.56 0 0 0
289 2 5.34 -3.56 5.34 0 0 0
290 3 3.56 -1.78 5.34 0 0 0
291 1 7.12 -3.56 3.56 0 0 0
292 5 8.9 -1.78 3.56 0 0 0
293 5 7.12 -1.78 5.34 0 0 0
294 1 -8.9 1.78 3.56 0 0 0
295 3 -7.12 0.0 3.56 0 0 0
296 3 -5.34 1.78 3.56 0 0 0
297 3 -5.34 0.0 5.34 0 0 0
298 1 -7.12 1.78 5.34 0 0 0
299 4 -3.56 0.0 3.56 0 0 0
300 4 -1.78 1.78 3.56 0 0 0
301 5 -1.78 0.0 5.34 0 0 0
302 1 -3.56 1.78 5.34 0 0 0
303 4 0.0 0.0 3.56 0 0 0
304 2 1.78 1.78 3.56 0 0 0
305 4 1.78 0.0 5.34 0 0 0
306 4 0.0 1.78 5.34 0 0 0
307 3 3.56 0.0 3.56 0 0 0
308 3 5.34 1.78 3.56 0 0 0
309 1 5.34 0.0 5.34 0 0 0
310 2 3.56 1.78 5.34 0 0 0
311 4 7.12 0.0 3.56 0 0 0
312 1 8.9 1.78 3.56 0 0 0
313 4 7.12 1.78 5.34 0 0 0
314 1 -7.12 3.56 3.56 0 0 0
315 5 -5.34 5.34 3.56 0 0 0
316 3 -5.34 3.56 5.34 0 0 0
317 4 -3.56 3.56 3.56 0 0 0
318 2 -1.78 5.34 3.56 0 0 0
319 5 -1.78 3.56 5.34 0 0 0
320 2 -3.56 5.34 5.34 0 0 0
321 1 0.0 3.56 3.56 0 0 0
322 4 1.78 5.34 3.56 0 0 0
323 2 1.78 3.56 5.34 0 0 0
324 4 0.0 5.34 5.34 0 0 0
325 1 3.56 3.56 3.56 0 0 0
326 5 5.34 5.34 3.56 0 0 0
327 3 5.34 3.56 5.34 0 0 0
328 1 3.56 5.34 5.34 0 0 0
329 3 7.12 3.56 3.56 0 0 0
330 3 -3.56 7.12 3.56 0 0 0
331 5 -1.78 8.9 3.56 0 0 0
332 4 -1.78 7.12 5.34 0 0 0
333 4 0.0 7.12 3.56 0 0 0
334 3 1.78 8.9 3.56 0 0 0
335 3 1.78 7.12 5.34 0 0 0
336 4 3.56 7.12 3.56 0 0 0
337 3 -1.78 -5.34 7.12 0 0 0
338 3 1.78 -5.34 7.12 0 0 0
339 4 -5.34 -1.78 7.12 0 0 0
340 5 -3.56 -3.56 7.12 0 0 0
341 4 -1.78 -1.78 7.12 0 0 0
342 2 -1.78 -3.56 8.9 0 0 0
343 2 -3.56 -1.78 8.9 0 0 0
344 3 0.0 -3.56 7.12 0 0 0
345 2 1.78 -1.78 7.12 0 0 0
346 1 1.78 -3.56 8.9 0 0 0
347 5 0.0 -1.78 8.9 0 0 0
348 4 3.56 -3.56 7.12 0 0 0
349 4 5.34 -1.78 7.12 0 0 0
350 5 3.56 -1.78 8.9 0 0 0
351 4 -5.34 1.78 7.12 0 0 0
352 2 -3.56 0.0 7.12 0 0 0
353 5 -1.78 1.78 7.12 0 0 0
354 2 -1.78 0.0 8.9 0 0 0
355 1 -3.56 1.78 8.9 0 0 0
356 1 0.0 0.0 7.12 0 0 0
357 4 1.78 1.78 7.12 0 0 0
358 5 1.78 0.0 8.9 0 0 0
359 2 0.0 1.78 8.9 0 0 0
360 1 3.56 0.0 7.12 0 0 0
361 3 5.34 1.78 7.12 0 0 0
362 1 3.56 1.78 8.9 0 0 0
363 2 -3.56 3.56 7.12 0 0 0
364 4 -1.78 5.34 7.12 0 0 0
365 4 -1.78 3.56 8.9 0 0 0
366 3 0.0 3.56 7.12 0 0 0
367 5 1.78 5.34 7.12 0 0 0
368 3 1.78 3.56 8.9 0 0 0
369 3 3.56 3.56 7.12 0 0 0

Velocities

1 0.0 0.0 0.0
2 0.0 0.0 0.0
3 0.0 0.0 0.0
4 0.0 0.0 0.0
5 0.0 0.0 0.0
6 0.0 0.0 0.0
7 0.0 0.0 0.0
8 0.0 0.0 0.0
9 0.0 0.0 0.0
10 0.0 0.0 0.0
11 0.0 0.0 0.0
12 0.0 0.0 0.0
13 0.0 0.0 0.0
14 0.0 0.0 0.0
15 0.0 0.0 0.0
16 0.0 0.0 0.0
17 0.0 0.0 0.0
18 0.0 0.0 0.0
19 0.0 0.0 0.0
20 0.0 0.0 0.0
21 0.0 0.0 0.0
22 0.0 0.0 0.0
23 0.0 0.0 0.0
24 0.0 0.0 0.0
25 0.0 0.0 0.0
26 0.0 0.0 0.0
27 0.0 0.0 0.0
28 0.0 0.0 0.0
29 0.0 0.0 0.0
30 0.0 0.0 0.0
31 0.0 0.0 0.0
32 0.0 0.0 0.0
33 0.0 0.0 0.0
34 0.0 0.0 0.0
35 0.0 0.0 0.0
36 0.0 0.0 0.0
37 0.0 0.0 0.0
38 0.0 0.0 0.0
39 0.0 0.0 0.0
40 0.0 0.0 0.0
41 0.0 0.0 0.0
42 0.0 0.0 0.0
43 0.0 0.0 0.0
44 0.0 0.0 0.0
45 0.0 0.0 0.0
46 0.0 0.0 0.0
47 0.0 0.0 0.0
48 0.0 0.0 0.0
49 0.0 0.0 0.0
50 0.0 0.0 0.0
51 0.0 0.0 0.0
52 0.0 0.0 0.0
53 0.0 0.0 0.0
54 0.0 0.0 0.0
55 0.0 0.0 0.0
56 0.0 0.0 0.0
57 0.0 0.0 0.0
58 0.0 0.0 0.0
59 0.0 0.0 0.0
60 0.0 0.0 0.0
61 0.0 0.0 0.0
62 0.0 0.0 0.0
63 0.0 0.0 0.0
64 0.0 0.0 0.0
65 0.0 0.0 0.0
66 0.0 0.0 0.0
67 0.0 0.0 0.0
68 0.0 0.0 0.0
69 0.0 0.0 0.0
70 0.0 0.0 0.0
71 0.0 0.0 0.0
72 0.0 0.0 0.0
73 0.0 0.0 0.0
74 0.0 0.0 0.0
75 0.0 0.0 0.0
76 0.0 0.0 0.0
77 0.0 0.0 0.0
78 0.0 0.0 0.0
79 0.0 0.0 0.0
80 0.0 0.0 0.0
81 0.0 0.0 0.0
82 0.0 0.0 0.0
83 0.0 0.0 0.0
84 0.0 0.0 0.0
85 0.0 0.0 0.0
86 0.0 0.0 0.0
87 0.0 0.0 0.0
88 0.0 0.0 0.0
89 0.0 0.0 0.0
90 0.0 0.0 0.0
91 0.0 0.0 0.0
92 0.0 0.0 0.0
93 0.0 0.0 0.0
94 0.0 0.0 0.0
95 0.0 0.0 0.0
96 0.0 0.0 0.0
97 0.0 0.0 0.0
98 0.0 0.0 0.0
99 0.0 0.0 0.0
100 0.0 0.0 0.0
101 0.0 0.0 0.0
102 0.0 0.0 0.0
103 0.0 0.0 0.0
104 0.0 0.0 0.0
105 0.0 0.0 0.0
106 0.0 0.0 0.0
107 0.0 0.0 0.0
108 0.0 0.0 0.0
109 0.0 0.0 0.0
110 0.0 0.0 0.0
111 0.0 0.0 0.0
112 0.0 0.0 0.0
113 0.0 0.0 0.0
114 0.0 0.0 0.0
115 0.0 0.0 0.0
116 0.0 0.0 0.0
117 0.0 0.0 0.0
118 0.0 0.0 0.0
119 0.0 0.0 0.0
120 0.0 0.0 0.0
121 0.0 0.0 0.0
122 0.0 0.0 0.0
123 0.0 0.0 0.0
124 0.0 0.0 0.0
125 0.0 0.0 0.0
126 0.0 0.0 0.0
127 0.0 0.0 0.0
128 0.0 0.0 0.0
129 0.0 0.0 0.0
130 0.0 0.0 0.0
131 0.0 0.0 0.0
132 0.0 0.0 0.0
133 0.0 0.0 0.0
134 0.0 0.0 0.0
135 0.0 0.0 0.0
136 0.0 0.0 0.0
137 0.0 0.0 0.0
138 0.0 0.0 0.0
139 0.0 0.0 0.0
140 0.0 0.0 0.0
141 0.0 0.0 0.0
142 0.0 0.0 0.0
143 0.0 0.0 0.0
144 0.0 0.0 0.0
145 0.0 0.0 0.0
146 0.0 0.0 0.0
147 0.0 0.0 0.0
148 0.0 0.0 0.0
149 0.0 0.0 0.0
150 0.0 0.0 0.0
151 0.0 0.0 0.0
152 0.0 0.0 0.0
153 0.0 0.0 0.0
154 0.0 0.0 0.0
155 0.0 0.0 0.0
156 0.0 0.0 0.0
157 0.0 0.0 0.0
158 0.0 0.0 0.0
159 0.0 0.0 0.0
160 0.0 0.0 0.0
161 0.0 0.0 0.0
162 0.0 0.0 0.0
163 0.0 0.0 0.0
164 0.0 0.0 0.0
165 0.0 0.0 0.0
166 0.0 0.0 0.0
167 0.0 0.0 0.0
168 0.0 0.0 0.0
169 0.0 0.0 0.0
170 0.0 0.0 0.0
171 0.0 0.0 0.0
172 0.0 0.0 0.0
173 0.0 0.0 0.0
174 0.0 0.0 0.0
175 0.0 0.0 0.0
176 0.0 0.0 0.0
177 0.0 0.0 0.0
178 0.0 0.0 0.0
179 0.0 0.0 0.0
180 0.0 0.0 0.0
181 0.0 0.0 0.0
182 0.0 0.0 0.0
183 0.0 0.0 0.0
184 0.0 0.0 0.0
185 0.0 0.0 0.0
186 0.0 0.0 0.0
187 0.0 0.0 0.0
188 0.0 0.0 0.0
189 0.0 0.0 0.0
190 0.0 0.0 0.0
191 0.0 0.0 0.0
192 0.0 0.0 0.0
193 0.0 0.0 0.0
194 0.0 0.0 0.0
195 0.0 0.0 0.0
196 0.0 0.0 0.0
197 0.0 0.0 0.0
198 0.0 0.0 0.0
199 0.0 0.0 0.0
200 0.0 0.0 0.0
201 0.0 0.0 0.0
202 0.0 0.0 0.0
203 0.0 0.0 0.0
204 0.0 0.0 0.0
205 0.0 0.0 0.0
206 0.0 0.0 0.0
207 0.0 0.0 0.0
208 0.0 0.0 0.0
209 0.0 0.0 0.0
210 0.0 0.0 0.0
211 0.0 0.0 0.0
212 0.0 0.0 0.0
213 0.0 0.0 0.0
214 0.0 0.0 0.0
215 0.0 0.0 0.0
216 0.0 0.0 0.0
217 0.0 0.0 0.0
218 0.0 0.0 0.0
219 0.0 0.0 0.0
220 0.0 0.0 0.0
221 0.0 0.0 0.0
222 0.0 0.0 0.0
223 0.0 0.0 0.0
224 0.0 0.0 0.0
225 0.0 0.0 0.0
226 0.0 0.0 0.0
227 0.0 0.0 0.0
228 0.0 0.0 0.0
229 0.0 0.0 0.0
230 0.0 0.0 0.0
231 0.0 0.0 0.0
232 0.0 0.0 0.0
233 0.0 0.0 0.0
234 0.0 0.0 0.0
235 0.0 0.0 0.0
236 0.0 0.0 0.0
237 0.0 0.0 0.0
238 0.0 0.0 0.0
239 0.0 0.0 0.0
240 0.0 0.0 0.0
241 0.0 0.0 0.0
242 0.0 0.0 0.0
243 0.0 0.0 0.0
244 0.0 0.0 0.0
245 0.0 0.0 0.0
246 0.0 0.0 0.0
247 0.0 0.0 0.0
248 0.0 0.0 0.0
249 0.0 0.0 0.0
250 0.0 0.0 0.0
251 0.0 0.0 0.0
252 0.0 0.0 0.0
253 0.0 0.0 0.0
254 0.0 0.0 0.0
255 0.0 0.0 0.0
256 0.0 0.0 0.0
257 0.0 0.0 0.0
258 0.0 0.0 0.0
259 0.0 0.0 0.0
260 0.0 0.0 0.0
261 0.0 0.0 0.0
262 0.0 0.0 0.0
263 0.0 0.0 0.0
264 0.0 0.0 0.0
265 0.0 0.0 0.0
266 0.0 0.0 0.0
267 0.0 0.0 0.0
268 0.0 0.0 0.0
269 0.0 0.0 0.0
270 0.0 0.0 0.0
271 0.0 0.0 0.0
272 0.0 0.0 0.0
273 0.0 0.0 0.0
274 0.0 0.0 0.0
275 0.0 0.0 0.0
276 0.0 0.0 0.0
277 0.0 0.0 0.0
278 0.0 0.0 0.0
279 0.0 0.0 0.0
280 0.0 0.0 0.0
281 0.0 0.0 0.0
282 0.0 0.0 0.0
283 0.0 0.0 0.0
284 0.0 0.0 0.0
285 0.0 0.0 0.0
286 0.0 0.0 0.0
287 0.0 0.0 0.0
288 0.0 0.0 0.0
289 0.0 0.0 0.0
290 0.0 0.0 0.0
291 0.0 0.0 0.0
292 0.0 0.0 0.0
293 0.0 0.0 0.0
294 0.0 0.0 0.0
295 0.0 0.0 0.0
296 0.0 0.0 0.0
297 0.0 0.0 0.0
298 0.0 0.0 0.0
299 0.0 0.0 0.0
300 0.0 0.0 0.0
301 0.0 0.0 0.0
302 0.0 0.0 0.0
303 0.0 0.0 0.0
304 0.0 0.0 0.0
305 0.0 0.0 0.0
306 0.0 0.0 0.0
307 0.0 0.0 0.0
308 0.0 0.0 0.0
309 0.0 0.0 0.0
310 0.0 0.0 0.0
311 0.0 0.0 0.0
312 0.0 0.0 0.0
313 0.0 0.0 0.0
314 0.0 0.0 0.0
315 0.0 0.0 0.0
316 0.0 0.0 0.0
317 0.0 0.0 0.0
318 0.0 0.0 0.0
319 0.0 0.0 0.0
320 0.0 0.0 0.0
321 0.0 0.0 0.0
322 0.0 0.0 0.0
323 0.0 0.0 0.0
324 0.0 0.0 0.0
325 0.0 0.0 0.0
326 0.0 0.0 0.0
327 0.0 0.0 0.0
328 0.0 0.0 0.0
329 0.0 0.0 0.0
330 0.0 0.0 0.0
331 0.0 0.0 0.0
332 0.0 0.0 0.0
333 0.0 0.0 0.0
334 0.0 0.0 0.0
335 0.0 0.0 0.0
336 0.0 0.0 0.0
337 0.0 0.0 0.0
338 0.0 0.0 0.0
339 0.0 0.0 0.0
340 0.0 0.0 0.0
341 0.0 0.0 0.0
342 0.0 0.0 0.0
343 0.0 0.0 0.0
344 0.0 0.0 0.0
345 0.0 0.0 0.0
346 0.0 0.0 0.0
347 0.0 0.0 0.0
348 0.0 0.0 0.0
349 0.0 0.0 0.0
350 0.0 0.0 0.0
351 0.0 0.0 0.0
352 0.0 0.0 0.0
353 0.0 0.0 0.0
354 0.0 0.0 0.0
355 0.0 0.0 0.0
356 0.0 0.0 0.0
357 0.0 0.0 0.0
358 0.0 0.0 0.0
359 0.0 0.0 0.0
360 0.0 0.0 0.0
361 0.0 0.0 0.0
362 0.0 0.0 0.0
363 0.0 0.0 0.0
364 0.0 0.0 0.0
365 0.0 0.0 0.0
366 0.0 0.0 0.0
367 0.0 0.0 0.0
368 0.0 0.0 0.0
369 0.0 0.0 0.0
